----- GAMESS execution script 'rungms' -----
This job is running on host chemcompute-node-0.novalocal
under operating system Linux at Tue Dec 21 00:24:53 UTC 2021
SLURM has assigned the following compute nodes to this run:
chemcompute-node-0
Available scratch disk space (Kbyte units) at beginning of the job is
Filesystem     1K-blocks     Used Available Use% Mounted on
/dev/sda1       62903276 16557712  46345564  27% /
GAMESS temporary binary files will be written to /scratch/329200
GAMESS supplementary output files will be written to /data/slurm/367165
Copying input file 367165.inp to your run's scratch directory...
The generated host list is
chemcompute-node-0.novalocal

 Distributed Data Interface kickoff program.
 Initiating 1 compute processes on 1 nodes to run the following command:
 /data/gamess-2019R1-ddi/gamess.00.x 367165 

          ******************************************************
          *         GAMESS VERSION = 30 JUN 2019 (R1)          *
          *             FROM IOWA STATE UNIVERSITY             *
          * M.W.SCHMIDT, K.K.BALDRIDGE, J.A.BOATZ, S.T.ELBERT, *
          *   M.S.GORDON, J.H.JENSEN, S.KOSEKI, N.MATSUNAGA,   *
          *          K.A.NGUYEN, S.J.SU, T.L.WINDUS,           *
          *       TOGETHER WITH M.DUPUIS, J.A.MONTGOMERY       *
          *         J.COMPUT.CHEM.  14, 1347-1363(1993)        *
          **************** 64 BIT LINUX VERSION ****************

  SINCE 1993, STUDENTS AND POSTDOCS WORKING AT IOWA STATE UNIVERSITY
  AND ALSO IN THEIR VARIOUS JOBS AFTER LEAVING ISU HAVE MADE IMPORTANT
  CONTRIBUTIONS TO THE CODE:
     IVANA ADAMOVIC, CHRISTINE AIKENS, YURI ALEXEEV, POOJA ARORA,
     ANDREY ASADCHEV, ROB BELL, PRADIPTA BANDYOPADHYAY, JONATHAN BENTZ,
     COLLEEN BERTONI, BRETT BODE, KURT BRORSEN, CALEB CARLIN, GALINA CHABAN,
     WEI CHEN, CHEOL HO CHOI, PAUL DAY, ALBERT DEFUSCO, NUWAN DESILVA,
     TIM DUDLEY, DMITRI FEDOROV, ALEX FINDLATER, GRAHAM FLETCHER, 
     MARK FREITAG, KURT GLAESEMANN, ANASTASIA GUNINA,
     DAN KEMP, GRANT MERRILL, NORIYUKI MINEZAWA, JONATHAN MULLIN,
     TAKESHI NAGATA, SEAN NEDD, HEATHER NETZLOFF, BOSILJKA NJEGIC, RYAN OLSON,
     MIKE PAK, BUU PHAM,
     SPENCER PRUITT, LUKE ROSKOP, JIM SHOEMAKER, LYUDMILA SLIPCHENKO,
     TONY SMITH, SAROM SOK LEANG, JIE SONG, TETSUYA TAKETSUGU, SIMON WEBB,
     PENG XU, SOOHAENG YOO, FEDERICO ZAHARIEV

  ADDITIONAL CODE HAS BEEN PROVIDED BY COLLABORATORS IN OTHER GROUPS:
     IOWA STATE UNIVERSITY:
          JOE IVANIC, AARON WEST, LAIMUTIS BYTAUTAS, KLAUS RUEDENBERG
     UNIVERSITY OF TOKYO: KIMIHIKO HIRAO, TAKAHITO NAKAJIMA,
          TAKAO TSUNEDA, MUNEAKI KAMIYA, SUSUMU YANAGISAWA,
          KIYOSHI YAGI, MAHITO CHIBA, SEIKEN TOKURA, NAOAKI KAWAKAMI
     UNIVERSITY OF AARHUS: FRANK JENSEN
     UNIVERSITY OF IOWA: VISVALDAS KAIRYS, HUI LI
     NATIONAL INST. OF STANDARDS AND TECHNOLOGY: WALT STEVENS, DAVID GARMER
     UNIVERSITY OF PISA: BENEDETTA MENNUCCI, JACOPO TOMASI
     UNIVERSITY OF MEMPHIS: HENRY KURTZ, PRAKASHAN KORAMBATH
     UNIVERSITY OF ALBERTA: TOBY ZENG, MARIUSZ KLOBUKOWSKI
     UNIVERSITY OF NEW ENGLAND: MARK SPACKMAN
     MIE UNIVERSITY: HIROAKI UMEDA
     NAT. INST. OF ADVANCED INDUSTRIAL SCIENCE AND TECHNOLOGY: KAZUO KITAURA
     MICHIGAN STATE UNIVERSITY:
          KAROL KOWALSKI, MARTA WLOCH, JEFFREY GOUR, JESSE LUTZ,
          WEI LI, JUN SHEN, J. EMILIANO DEUSTUA, PIOTR PIECUCH
     UNIVERSITY OF MINNESOTA:
          YINAN SHU
     UNIVERSITY OF SILESIA: MONIKA MUSIAL, STANISLAW KUCHARSKI
     FACULTES UNIVERSITAIRES NOTRE-DAME DE LA PAIX:
          OLIVIER QUINET, BENOIT CHAMPAGNE
     UNIVERSITY OF CALIFORNIA - SANTA BARBARA: BERNARD KIRTMAN
     INSTITUTE FOR MOLECULAR SCIENCE:
          KAZUYA ISHIMURA, MICHIO KATOUDA, AND SHIGERU NAGASE
     UNIVERSITY OF NOTRE DAME: ANNA POMOGAEVA, DAN CHIPMAN
     KYUSHU UNIVERSITY:
          HARUYUKI NAKANO,
          FENG LONG GU, JACEK KORCHOWIEC, MARCIN MAKOWSKI, AND YURIKO AOKI,
          HIROTOSHI MORI AND EISAKU MIYOSHI
     PENNSYLVANIA STATE UNIVERSITY:
          TZVETELIN IORDANOV, CHET SWALINA, JONATHAN SKONE,
          SHARON HAMMES-SCHIFFER
     WASEDA UNIVERSITY:
          MASATO KOBAYASHI, TOMOKO AKAMA, TSUGUKI TOUMA,
          TAKESHI YOSHIKAWA, YASUHIRO IKABATA, JUNJI SEINO,
          YUYA NAKAJIMA, HIROMI NAKAI
     NANJING UNIVERSITY: SHUHUA LI
     UNIVERSITY OF NEBRASKA:
          PEIFENG SU, DEJUN SI, NANDUN THELLAMUREGE, YALI WANG, HUI LI
     UNIVERSITY OF ZURICH: ROBERTO PEVERATI, KIM BALDRIDGE
     N. COPERNICUS UNIVERSITY AND JACKSON STATE UNIVERSITY:
          MARIA BARYSZ
     UNIVERSITY OF COPENHAGEN: Jimmy Kromann, CASPER STEINMANN
     TOKYO INSTITUTE OF TECHNOLOGY: HIROYA NAKATA
     NAGOYA UNIVERSITY: YOSHIO NISHIMOTO, STEPHAN IRLE
     MOSCOW STATE UNIVERSITY: VLADIMIR MIRONOV
     A.N.NESMEYANOV INSTITUTE OF ORGANOELEMENT COMPOUNDS OF RUSSIAN ACADEMY OF SCIENCES:
          IGOR S. GERASIMOV

 EXECUTION OF GAMESS BEGUN Tue Dec 21 00:24:53 2021

            ECHO OF THE FIRST FEW INPUT CARDS -
 INPUT CARD>!   File created by the GAMESS Input Deck Generator Plugin for Avogadro         
 INPUT CARD> $BASIS GBASIS=STO NGAUSS=3 $END                                                
 INPUT CARD> $CONTRL SCFTYP=RHF RUNTYP=IRC NZVAR=1 mult=1  ICHARG=1 $END                    
 INPUT CARD> $STATPT hssend=.t. OPTTOL=0.0005 NSTEP=50 $END                                 
 INPUT CARD> $STATPT HESS=READ ihrep=5 $END                                                 
 INPUT CARD> $FORCE nvib=2 $END                                                             
 INPUT CARD> $ZMAT DLC=.t. auto=.t. nonvdw(1)=5,6 $END                                      
 INPUT CARD>!$ZMAT IFZMAT(1)=1,5,6 fvalue(1)=2.86 $END                                      
 INPUT CARD> $irc npoint=100 saddle=.t. tsengy=.t. forwrd=.t. opttol=0.0005 stride=0.1 $end 
 INPUT CARD> $DATA                                                                          
 INPUT CARD>Title                                                                           
 INPUT CARD>C1                                                                              
 INPUT CARD>C     6.0    -6.21932364     2.63410378    -0.00000000                          
 INPUT CARD>Cl    17.0    -7.36990833     3.95970821     0.00000000                         
 INPUT CARD>H     1.0    -6.67189407     1.63288963    -0.00000000                          
 INPUT CARD>H     1.0    -4.61944389     3.78017306    -0.00000000                          
 INPUT CARD>N     7.0    -4.95951414     2.78930855    -0.00000000                          
 INPUT CARD>H     1.0    -2.88764477     0.81777149     0.00000000                          
 INPUT CARD> $END                                                                           
 INPUT CARD> $HESS                                                                          
 INPUT CARD>ENERGY IS     -546.8885284089 E(NUC) IS       92.8042511448                     
 INPUT CARD> 1  1 1.10075329E+00 1.82015568E-01 0.00000000E+00-1.21886556E-01 9.91236461E-02
 INPUT CARD> 1  2 0.00000000E+00-1.18758924E-01-1.47992885E-01 0.00000000E+00-3.27784421E-02
 INPUT CARD> 1  3 2.36594004E-02 0.00000000E+00-8.18552342E-01-1.64230169E-01 0.00000000E+00
 INPUT CARD> 1  4-8.77804027E-03 7.42374717E-03 0.00000000E+00                              
 INPUT CARD> 2  1 1.82015568E-01 7.44750736E-01 0.00000000E+00 1.22471108E-01-1.97504419E-01
 INPUT CARD> 2  2 0.00000000E+00-1.39157133E-01-3.95029669E-01 0.00000000E+00-5.48095600E-02
 INPUT CARD> 2  3 5.88732663E-03 0.00000000E+00-1.10772354E-01-1.60565824E-01 0.00000000E+00
 INPUT CARD> 2  4 2.52717222E-04 2.46174680E-03 0.00000000E+00                              
 INPUT CARD> 3  1 0.00000000E+00 0.00000000E+00 1.41929911E-01 0.00000000E+00 0.00000000E+00
 INPUT CARD> 3  2-3.38712821E-02 0.00000000E+00 0.00000000E+00-5.69689639E-02 0.00000000E+00
 INPUT CARD> 3  3 0.00000000E+00-3.33232856E-03 0.00000000E+00 0.00000000E+00-4.81906264E-02
 INPUT CARD> 3  4 0.00000000E+00 0.00000000E+00 4.33154980E-04                              
 INPUT CARD> 4  1-1.21886556E-01 1.22471108E-01 0.00000000E+00 1.70766304E-01-1.53839614E-01
 INPUT CARD> 4  2 0.00000000E+00-9.06941150E-04-4.75868095E-03 0.00000000E+00 5.19705099E-03
 INPUT CARD> 4  3 1.71722964E-03 0.00000000E+00-5.60653882E-02 3.73270231E-02 0.00000000E+00
 INPUT CARD> 4  4 2.89511727E-03-2.91683389E-03 0.00000000E+00                              
 INPUT CARD> 5  1 9.91236461E-02-1.97504419E-01 0.00000000E+00-1.53839614E-01 2.07127647E-01
 INPUT CARD> 5  2 0.00000000E+00 2.97938976E-02-1.09743521E-02 0.00000000E+00-2.76536633E-03
 INPUT CARD> 5  3-3.00810084E-04 0.00000000E+00 2.99309453E-02-6.45463441E-05 0.00000000E+00
 INPUT CARD> 5  4-2.24411584E-03 1.71650057E-03 0.00000000E+00                              
 INPUT CARD> 6  1 0.00000000E+00 0.00000000E+00-3.38712821E-02 0.00000000E+00 0.00000000E+00
 INPUT CARD> 6  2 1.14978401E-02 0.00000000E+00 0.00000000E+00 8.65230384E-03 0.00000000E+00
 INPUT CARD> 6  3 0.00000000E+00-6.67258702E-03 0.00000000E+00 0.00000000E+00 1.93597933E-02
 INPUT CARD> 6  4 0.00000000E+00 0.00000000E+00 1.03370497E-03                              
 INPUT CARD> 7  1-1.18758924E-01-1.39157133E-01 0.00000000E+00-9.06941150E-04 2.97938976E-02
 INPUT CARD> 7  2 0.00000000E+00 1.42863843E-01 1.47997010E-01 0.00000000E+00-3.30025360E-03
 INPUT CARD> 7  3-1.44331740E-03 0.00000000E+00-1.95982909E-02-3.71449159E-02 0.00000000E+00
 INPUT CARD> 7  4-2.99539103E-04-4.54327590E-05 0.00000000E+00                              
 INPUT CARD> 8  1-1.47992885E-01-3.95029669E-01 0.00000000E+00-4.75868095E-03-1.09743521E-02
    1000000 WORDS OF MEMORY AVAILABLE

     BASIS OPTIONS
     -------------
     GBASIS=STO          IGAUSS=       3      POLAR=NONE    
     NDFUNC=       0     NFFUNC=       0     DIFFSP=       F
     NPFUNC=       0      DIFFS=       F     BASNAM=        


     RUN TITLE
     ---------
 Title                                                                           

 THE POINT GROUP OF THE MOLECULE IS C1      
 THE ORDER OF THE PRINCIPAL AXIS IS     0

 ATOM      ATOMIC                      COORDINATES (BOHR)
           CHARGE         X                   Y                   Z
 C           6.0   -11.7528175086        4.9777343674       -0.0000000000
 CL         17.0   -13.9271072983        7.4827635082        0.0000000000
 H           1.0   -12.6080516114        3.0857139689       -0.0000000000
 H           1.0    -8.7294831678        7.1434912696       -0.0000000000
 N           7.0    -9.3721227568        5.2710288547       -0.0000000000
 H           1.0    -5.4568573652        1.5453640367        0.0000000000

          INTERNUCLEAR DISTANCES (ANGS.)
          ------------------------------

                1 C          2 CL         3 H          4 H          5 N     

   1 C       0.0000000    1.7552983 *  1.0987492 *  1.9680168 *  1.2693339 *
   2 CL      1.7552983 *  0.0000000    2.4292609 *  2.7563177 *  2.6795215 *
   3 H       1.0987492 *  2.4292609 *  0.0000000    2.9704171 *  2.0662889 *
   4 H       1.9680168 *  2.7563177 *  2.9704171 *  0.0000000    1.0475974 *
   5 N       1.2693339 *  2.6795215 *  2.0662889 *  1.0475974 *  0.0000000  
   6 H       3.7946208    5.4737969    3.8710412    3.4314649    2.8600002 *

                6 H     

   1 C       3.7946208  
   2 CL      5.4737969  
   3 H       3.8710412  
   4 H       3.4314649  
   5 N       2.8600002 *
   6 H       0.0000000  

  * ... LESS THAN  3.000


     ATOMIC BASIS SET
     ----------------
 THE CONTRACTED PRIMITIVE FUNCTIONS HAVE BEEN UNNORMALIZED
 THE CONTRACTED BASIS FUNCTIONS ARE NOW NORMALIZED TO UNITY

  SHELL TYPE  PRIMITIVE        EXPONENT          CONTRACTION COEFFICIENT(S)

 C         

      1   S       1            71.6168373    0.154328967295
      1   S       2            13.0450963    0.535328142282
      1   S       3             3.5305122    0.444634542185

      2   L       4             2.9412494   -0.099967229187    0.155916274999
      2   L       5             0.6834831    0.399512826089    0.607683718598
      2   L       6             0.2222899    0.700115468880    0.391957393099

 CL        

      3   S       7           601.3456136    0.154328967295
      3   S       8           109.5358542    0.535328142282
      3   S       9            29.6446769    0.444634542185

      4   L      10            38.9604189   -0.099967229187    0.155916274999
      4   L      11             9.0535635    0.399512826089    0.607683718598
      4   L      12             2.9444998    0.700115468880    0.391957393099

      5   L      13             2.2112785   -0.219620369005    0.010587604289
      5   L      14             0.6169411    0.225595433605    0.595167005266
      5   L      15             0.2414666    0.900398426019    0.462001011973

 H         

      6   S      16             3.4252509    0.154328967295
      6   S      17             0.6239137    0.535328142282
      6   S      18             0.1688554    0.444634542185

 H         

      7   S      19             3.4252509    0.154328967295
      7   S      20             0.6239137    0.535328142282
      7   S      21             0.1688554    0.444634542185

 N         

      8   S      22            99.1061690    0.154328967295
      8   S      23            18.0523124    0.535328142282
      8   S      24             4.8856602    0.444634542185

      9   L      25             3.7804559   -0.099967229187    0.155916274999
      9   L      26             0.8784966    0.399512826089    0.607683718598
      9   L      27             0.2857144    0.700115468880    0.391957393099

 H         

     10   S      28             3.4252509    0.154328967295
     10   S      29             0.6239137    0.535328142282
     10   S      30             0.1688554    0.444634542185

 TOTAL NUMBER OF BASIS SET SHELLS             =   10
 NUMBER OF CARTESIAN GAUSSIAN BASIS FUNCTIONS =   22
 NUMBER OF ELECTRONS                          =   32
 CHARGE OF MOLECULE                           =    1
 SPIN MULTIPLICITY                            =    1
 NUMBER OF OCCUPIED ORBITALS (ALPHA)          =   16
 NUMBER OF OCCUPIED ORBITALS (BETA )          =   16
 TOTAL NUMBER OF ATOMS                        =    6
 THE NUCLEAR REPULSION ENERGY IS       92.8042509519

     $CONTRL OPTIONS
     ---------------
 SCFTYP=RHF          RUNTYP=IRC          EXETYP=RUN     
 MPLEVL=       0     CITYP =NONE         CCTYP =NONE         VBTYP =NONE    
 DFTTYP=NONE         TDDFT =NONE    
 MULT  =       1     ICHARG=       1     NZVAR =       1     COORD =UNIQUE  
 PP    =NONE         RELWFN=NONE         LOCAL =NONE         NUMGRD=       F
 ISPHER=      -1     NOSYM =       0     MAXIT =      30     UNITS =ANGS    
 PLTORB=       F     MOLPLT=       F     AIMPAC=       F     FRIEND=        
 NPRINT=       7     IREST =       0     GEOM  =INPUT   
 NORMF =       0     NORMP =       0     ITOL  =      20     ICUT  =       9
 INTTYP=BEST         GRDTYP=BEST         QMTTOL= 1.0E-06

     $SYSTEM OPTIONS
     ---------------
  REPLICATED MEMORY=     1000000 WORDS (ON EVERY NODE).
 DISTRIBUTED MEMDDI=           0 MILLION WORDS IN AGGREGATE,
 MEMDDI DISTRIBUTED OVER   1 PROCESSORS IS           0 WORDS/PROCESSOR.
 TOTAL MEMORY REQUESTED ON EACH PROCESSOR=     1000000 WORDS.
 TIMLIM=      525600.00 MINUTES, OR     365.0 DAYS.
 PARALL= F  BALTYP=  DLB     KDIAG=    0  COREFL= F
 MXSEQ2=     300 MXSEQ3=     150  mem10=         0

          ----------------
          PROPERTIES INPUT
          ----------------

     MOMENTS            FIELD           POTENTIAL          DENSITY
 IEMOM =       1   IEFLD =       0   IEPOT =       0   IEDEN =       0
 WHERE =COMASS     WHERE =NUCLEI     WHERE =NUCLEI     WHERE =NUCLEI  
 OUTPUT=BOTH       OUTPUT=BOTH       OUTPUT=BOTH       OUTPUT=BOTH    
 IEMINT=       0   IEFINT=       0                     IEDINT=       0
                                                       MORB  =       0
          EXTRAPOLATION IN EFFECT
          SOSCF IN EFFECT
 ORBITAL PRINTING OPTION: NPREO=     1    22     2     1

     -------------------------------
     INTEGRAL TRANSFORMATION OPTIONS
     -------------------------------
     NWORD  =            0
     CUTOFF = 1.0E-09     MPTRAN =       0
     DIRTRF =       F     AOINTS =DUP     

          ----------------------
          INTEGRAL INPUT OPTIONS
          ----------------------
 NOPK  =       1 NORDER=       0 SCHWRZ=       T


 -----------------------------------------------
  STATISTICS ON AUTOMATIC COORDINATE GENERATION 
 -----------------------------------------------
  NUMBER OF USER SPECIFIED BONDS                             1
  NUMBER OF BONDS                                            5
  NUMBER OF ANGLES                                           6
  NUMBER OF TORSIONS                                         4
  NUMBER OF EXTRA COORD.                                     0
  NUMBER OF EXTRA COORD. FOR CONSTRAINTS                     0
  NUMBER OF CONSTRAINED COORD.                               0

  TOTAL NUMBER OF PRIMITIVES                                15
 -----------------------------------------------

   --- ENCODED Z MATRIX ---
 COORD  TYPE   I   J   K   L   M   N
    1      1    1   3
    2      1    1   5
    3      1    1   2
    4      1    4   5
    5      1    5   6
    6      2    1   5   6
    7      2    1   5   4
    8      2    2   1   5
    9      2    2   1   3
   10      2    3   1   5
   11      2    4   5   6
   12      3    2   1   5   4
   13      3    2   1   5   6
   14      3    3   1   5   4
   15      3    3   1   5   6

          INDEP./SYM. INTERNAL COORDINATES
          --------------------------------
 CRD  1=   0.6484 (  6) -0.3566 (  7) -0.4545 (  8)  0.3691 ( 10) -0.2917 ( 11)
 CRD  2=  -0.5369 (  2) -0.1518 (  3) -0.1264 (  5) -0.2379 (  6) -0.1887 (  7)
          -0.4463 (  8)  0.4440 (  9)  0.4266 ( 11)
 CRD  3=  -0.3714 ( 12) -0.8402 ( 13) -0.3863 ( 15)
 CRD  4=  -0.4293 (  1) -0.3499 (  2)  0.2091 (  3) -0.4662 (  4)  0.2824 (  6)
          -0.2516 (  7)  0.3115 (  8)  0.1073 (  9) -0.4188 ( 10)
 CRD  5=   0.2870 (  1)  0.2786 (  3) -0.1196 (  4) -0.4071 (  5)  0.4171 (  7)
          -0.1426 (  8)  0.4322 (  9) -0.2896 ( 10) -0.4408 ( 11)
 CRD  6=  -0.2768 (  1) -0.2836 (  2) -0.5480 (  3) -0.1953 (  4) -0.5162 (  5)
           0.2252 (  7) -0.2796 (  9)  0.2320 ( 10) -0.2303 ( 11)
 CRD  7=  -0.3877 ( 12)  0.2079 ( 13) -0.8586 ( 14) -0.2630 ( 15)
 CRD  8=  -0.5064 (  1) -0.2474 (  3)  0.5878 (  4)  0.2817 (  5)  0.1816 (  7)
           0.2940 (  9) -0.1986 ( 10) -0.2796 ( 11)
 CRD  9=  -0.3412 (  1)  0.5738 (  3)  0.4278 (  4) -0.5310 (  5) -0.1499 (  7)
          -0.1518 (  9)  0.1629 ( 10)  0.1217 ( 11)
 CRD 10=  -0.4839 (  1)  0.6379 (  2) -0.3744 (  4) -0.1125 (  5) -0.2039 (  6)
          -0.2703 (  8)  0.2353 (  9)  0.1803 ( 11)
 CRD 11=  -0.6795 ( 12)  0.7291 ( 15)
 CRD 12=  -0.2106 (  1) -0.3099 (  2)  0.4037 (  3) -0.2277 (  4)  0.4145 (  5)
          -0.2395 (  6)  0.3998 (  7) -0.2430 (  8) -0.1444 (  9)  0.3874 ( 10)
          -0.1603 ( 11)

 THE DETERMINANT OF THE G MATRIX IS 10**(    -7)


                     --------------------
                     INTERNAL COORDINATES
                     --------------------

                 - - ATOMS - -         COORDINATE      COORDINATE
 NO.   TYPE    I  J  K  L  M  N        (BOHR,RAD)       (ANG,DEG)
 ----------------------------------------------------------------
   1 STRETCH   1  3                     2.0763349       1.0987492
   2 STRETCH   1  5                     2.3986932       1.2693339
   3 STRETCH   1  2                     3.3170329       1.7552983
   4 STRETCH   4  5                     1.9796720       1.0475974
   5 STRETCH   5  6                     5.4046167       2.8600002
   6 BEND      1  5  6                  2.2584239     129.3981550
   7 BEND      1  5  4                  2.0239848     115.9657874
   8 BEND      2  1  5                  2.1630514     123.9337160
   9 BEND      2  1  3                  2.0022244     114.7190078
  10 BEND      3  1  5                  2.1179095     121.3472761
  11 BEND      4  5  6                  2.0007766     114.6360576
  12 TORSION   2  1  5  4               0.0000000       0.0000000
  13 TORSION   2  1  5  6               3.1415927     180.0000000
  14 TORSION   3  1  5  4               3.1415927     180.0000000
  15 TORSION   3  1  5  6               0.0000000       0.0000000

     ------------------------------------------
     THE POINT GROUP IS C1 , NAXIS= 0, ORDER= 1
     ------------------------------------------

     DIMENSIONS OF THE SYMMETRY SUBSPACES ARE
 A   =   22

 ..... DONE SETTING UP THE RUN .....
 STEP CPU TIME =     0.05 TOTAL CPU TIME =          0.0 (      0.0 MIN)
 TOTAL WALL CLOCK TIME=          0.1 SECONDS, CPU UTILIZATION IS    71.43%

          -----------------------------
          INTRINSIC REACTION COORDINATE
          -----------------------------
          PACE   =GS2     
          STRIDE = 0.10000 BOHR*SQRT(AMU)
          NPOINT =     100
          NEXTPT =       0
          STOTAL =  0.0000 BOHR*SQRT(AMU)
          SAB    =  0.0000 BOHR*SQRT(AMU)
          NPRT   =       0
          NPUN   =       0

          SADDLE =       T
          TSENGY =       T
          FORWRD =       T
          EVIB   = 0.00050 HARTREE
          FREQ   =     0.0 CM**-1

          STABLZ =       F
          ELBOW  =  175.00 DEGREES
          DELTA  = 0.02500 BOHR

          READQB =       F
          EB     =        0.0000000000 HARTREES
          GBNORM =        0.0000000000 HARTREES/SQRT(AMU)-BOHR

          GCUT   = 0.0000500 HARTREES/SQRT(AMU)-BOHR
          RCUT   = 0.0005000 BOHR
          ACUT   =    5.00 DEGREES
          MXOPT  =      20
          IHUPD  =       2

 ATOMIC MASSES USED (IN AMU) ARE
     C             12.0000
     CL            34.9689
     H              1.0078
     H              1.0078
     N             14.0031
     H              1.0078

 JUMP AWAY FROM SADDLE POINT WILL BE FOUND FROM THE INPUT HESSIAN MATRIX

 COMPUTING WAVEFUNCTION AT TRANSITION STATE...

          ********************
          1 ELECTRON INTEGRALS
          ********************
 ...... END OF ONE-ELECTRON INTEGRALS ......
 STEP CPU TIME =     0.01 TOTAL CPU TIME =          0.1 (      0.0 MIN)
 TOTAL WALL CLOCK TIME=          0.1 SECONDS, CPU UTILIZATION IS    60.00%

          -------------
          GUESS OPTIONS
          -------------
          GUESS =HUCKEL            NORB  =       0          NORDER=       0
          MIX   =       F          PRTMO =       F          PUNMO =       F
          TOLZ  = 1.0E-08          TOLE  = 1.0E-05
          SYMDEN=       F          PURIFY=       F

 INITIAL GUESS ORBITALS GENERATED BY HUCKEL   ROUTINE.
 HUCKEL GUESS REQUIRES      9694 WORDS.

 SYMMETRIES FOR INITIAL GUESS ORBITALS FOLLOW.   BOTH SET(S).
    16 ORBITALS ARE OCCUPIED (    7 CORE ORBITALS).
     8=A        9=A       10=A       11=A       12=A       13=A       14=A   
    15=A       16=A       17=A       18=A       19=A       20=A       21=A   
    22=A   
 ...... END OF INITIAL ORBITAL SELECTION ......
 STEP CPU TIME =     0.02 TOTAL CPU TIME =          0.1 (      0.0 MIN)
 TOTAL WALL CLOCK TIME=          0.1 SECONDS, CPU UTILIZATION IS    66.67%

                    ----------------------
                    AO INTEGRAL TECHNOLOGY
                    ----------------------
     S,P,L SHELL ROTATED AXIS INTEGRALS, REPROGRAMMED BY
        KAZUYA ISHIMURA (IMS) AND JOSE SIERRA (SYNSTAR).
     S,P,D,L SHELL ROTATED AXIS INTEGRALS PROGRAMMED BY
        KAZUYA ISHIMURA (INSTITUTE FOR MOLECULAR SCIENCE).
     S,P,D,F,G SHELL TO TOTAL QUARTET ANGULAR MOMENTUM SUM 5,
        ERIC PROGRAM BY GRAHAM FLETCHER (ELORET AND NASA ADVANCED
        SUPERCOMPUTING DIVISION, AMES RESEARCH CENTER).
     S,P,D,F,G,L SHELL GENERAL RYS QUADRATURE PROGRAMMED BY
        MICHEL DUPUIS (PACIFIC NORTHWEST NATIONAL LABORATORY).

          --------------------
          2 ELECTRON INTEGRALS
          --------------------

 THE -PK- OPTION IS OFF, THE INTEGRALS ARE NOT IN SUPERMATRIX FORM.
 STORING   15000 INTEGRALS/RECORD ON DISK, USING 12 BYTES/INTEGRAL.
 TWO ELECTRON INTEGRAL EVALUATION REQUIRES   89411 WORDS OF MEMORY.
 SCHWARZ INEQUALITY OVERHEAD:       248 INTEGRALS, T=        0.00
 II,JST,KST,LST =  1  1  1  1 NREC =         1 INTLOC =    1
 II,JST,KST,LST =  2  1  1  1 NREC =         1 INTLOC =    2
 II,JST,KST,LST =  3  1  1  1 NREC =         1 INTLOC =   34
 II,JST,KST,LST =  4  1  1  1 NREC =         1 INTLOC =   93
 II,JST,KST,LST =  5  1  1  1 NREC =         1 INTLOC =  708
 II,JST,KST,LST =  6  1  1  1 NREC =         1 INTLOC = 2541
 II,JST,KST,LST =  7  1  1  1 NREC =         1 INTLOC = 3547
 II,JST,KST,LST =  8  1  1  1 NREC =         1 INTLOC = 4792
 II,JST,KST,LST =  9  1  1  1 NREC =         1 INTLOC = 5837
 II,JST,KST,LST = 10  1  1  1 NREC =         1 INTLOC =13890
 SCHWARZ INEQUALITY TEST SKIPPED         278 INTEGRAL BLOCKS.
 TOTAL NUMBER OF NONZERO TWO-ELECTRON INTEGRALS =               16333
          2 INTEGRAL RECORDS WERE STORED ON DISK FILE  8.
  ...... END OF TWO-ELECTRON INTEGRALS .....
 STEP CPU TIME =     0.01 TOTAL CPU TIME =          0.1 (      0.0 MIN)
 TOTAL WALL CLOCK TIME=          0.1 SECONDS, CPU UTILIZATION IS    64.29%

          --------------------------
                 RHF SCF CALCULATION
          --------------------------

     NUCLEAR ENERGY =        92.8042509519
     MAXIT =   30     NPUNCH=    2
     EXTRAP=T  DAMP=F  SHIFT=F  RSTRCT=F  DIIS=F  DEM=F  SOSCF=T
     DENSITY MATRIX CONV=  1.00E-05
     SOSCF WILL OPTIMIZE      96 ORBITAL ROTATIONS, SOGTOL=   0.250
     MEMORY REQUIRED FOR RHF ITERS=     34080 WORDS.

 ITER EX DEM     TOTAL ENERGY        E CHANGE  DENSITY CHANGE     ORB. GRAD
   1  0  0     -545.4880647521  -545.4880647521   1.947278228   0.000000000
   2  1  0     -546.2500141425    -0.7619493904   1.999584713   0.450606284
   3  2  0     -545.3272387009     0.9227754416   2.001003337   0.278153239
   4  3  0     -544.9075802819     0.4196584190   2.001179168   0.714462899
   5  4  0     -544.4530595023     0.4545207795   2.001313161   0.339702662
   6  0  0     -543.5750287469     0.8780307554   1.306407448   0.610939116
          ---------------START SECOND ORDER SCF---------------
   7  1  0     -546.7173455509    -3.1423168040   0.498996854   0.131146817
   8  2  0     -546.8144238843    -0.0970783334   0.171153292   0.086441155
   9  3  0     -546.8671518425    -0.0527279583   0.081089369   0.024204820
  10  4  0     -546.8749408861    -0.0077890436   0.694465460   0.023574996
  11  5  0     -546.8005047036     0.0744361825   0.633333090   0.136231550
  12  6  0     -546.8816830884    -0.0811783848   0.063983761   0.020941401
  13  7  0     -546.8859728343    -0.0042897458   0.151746618   0.013094116
  14  8  0     -546.8873557156    -0.0013828814   0.070534496   0.012584051
  15  9  0     -546.8884134378    -0.0010577221   0.008332043   0.002194246
  16 10  0     -546.8884997354    -0.0000862976   0.007031820   0.001272154
  17 11  0     -546.8885274354    -0.0000276999   0.000928469   0.000190238
  18 12  0     -546.8885281146    -0.0000006793   0.000939503   0.000110613
  19 13  0     -546.8885283320    -0.0000002174   0.000457318   0.000043940
  20 14  0     -546.8885283852    -0.0000000532   0.000166142   0.000025447
  21 15  0     -546.8885283968    -0.0000000116   0.000025544   0.000007044
  22 16  0     -546.8885283977    -0.0000000009   0.000012639   0.000002940
  23 17  0     -546.8885283979    -0.0000000002   0.000005408   0.000001246

          -----------------
          DENSITY CONVERGED
          -----------------
     TIME TO FORM FOCK OPERATORS=       0.0 SECONDS (       0.0 SEC/ITER)
     TIME TO SOLVE SCF EQUATIONS=       0.1 SECONDS (       0.0 SEC/ITER)

 FINAL RHF ENERGY IS     -546.8885283979 AFTER  23 ITERATIONS

          ------------
          EIGENVECTORS
          ------------

                      1          2          3          4          5
                 -103.8494   -15.6055   -11.3726   -10.5387    -7.9816
                     A          A          A          A          A   
    1  C  1  S   -0.000054   0.000501   0.992645   0.001682  -0.001353
    2  C  1  S    0.000379  -0.007960   0.032811  -0.007827   0.010918
    3  C  1  X   -0.000230  -0.005824   0.001742   0.004387  -0.005837
    4  C  1  Y    0.000282  -0.001018  -0.000229  -0.005381   0.007097
    5  C  1  Z    0.000000   0.000000  -0.000000  -0.000000   0.000000
    6  CL 2  S    0.994494   0.000006   0.000108  -0.376826  -0.004920
    7  CL 2  S    0.015776  -0.000009  -0.000380   1.052764   0.013995
    8  CL 2  X    0.000082  -0.000050   0.000307   0.007505  -0.661773
    9  CL 2  Y   -0.000091  -0.000005  -0.000311  -0.008102   0.733231
   10  CL 2  Z    0.000000   0.000000  -0.000000  -0.000000   0.000000
   11  CL 2  S   -0.001865   0.000301  -0.004127   0.045790  -0.005861
   12  CL 2  X   -0.000159   0.000385  -0.002759   0.003849  -0.032228
   13  CL 2  Y    0.000181  -0.000018   0.002890  -0.004323   0.035848
   14  CL 2  Z    0.000000   0.000000  -0.000000  -0.000000   0.000000
   15  H  3  S    0.000005   0.000129  -0.006473  -0.000142  -0.000076
   16  H  4  S    0.000039  -0.006413  -0.000592  -0.000790   0.000602
   17  N  5  S    0.000003   0.993663   0.000113  -0.000060   0.000052
   18  N  5  S   -0.000028   0.030366  -0.006597   0.000574  -0.000574
   19  N  5  X    0.000006  -0.005014   0.003237  -0.000093   0.000186
   20  N  5  Y   -0.000043   0.002924   0.000603   0.000667  -0.000728
   21  N  5  Z    0.000000   0.000000  -0.000000  -0.000000   0.000000
   22  H  6  S   -0.000000  -0.000141  -0.000007   0.000009   0.000001

                      6          7          8          9         10
                   -7.9755    -7.9753    -1.4071    -1.2093    -0.9844
                     A          A          A          A          A   
    1  C  1  S   -0.000000   0.000043  -0.148508  -0.045905  -0.150762
    2  C  1  S   -0.000000  -0.000328   0.361614   0.145181   0.490099
    3  C  1  X   -0.000000  -0.003200   0.132237  -0.179076  -0.042586
    4  C  1  Y   -0.000000  -0.002077   0.044072   0.073301  -0.217095
    5  C  1  Z   -0.003139  -0.000000   0.000000   0.000000   0.000000
    6  CL 2  S   -0.000000   0.000050   0.018759   0.077858  -0.028604
    7  CL 2  S   -0.000000  -0.000143  -0.063095  -0.258290   0.092636
    8  CL 2  X   -0.000000   0.734575  -0.017097  -0.026412  -0.006172
    9  CL 2  Y   -0.000000   0.662937   0.015212   0.032100   0.028427
   10  CL 2  Z    0.989477  -0.000000   0.000000   0.000000   0.000000
   11  CL 2  S   -0.000000  -0.000063   0.184137   0.833919  -0.343713
   12  CL 2  X   -0.000000   0.030017   0.045216   0.077851   0.015136
   13  CL 2  Y   -0.000000   0.027220  -0.041467  -0.092065  -0.084592
   14  CL 2  Z    0.040544  -0.000000   0.000000   0.000000   0.000000
   15  H  3  S   -0.000000  -0.000347   0.052758   0.037250   0.273669
   16  H  4  S   -0.000000  -0.000912   0.097505  -0.071066  -0.260874
   17  N  5  S   -0.000000  -0.000084  -0.190184   0.089655   0.067984
   18  N  5  S   -0.000000   0.001504   0.616601  -0.314034  -0.276610
   19  N  5  X   -0.000000  -0.000595  -0.157011   0.009160  -0.222659
   20  N  5  Y   -0.000000  -0.000013   0.049295  -0.021165  -0.250853
   21  N  5  Z    0.000374  -0.000000   0.000000   0.000000   0.000000
   22  H  6  S   -0.000000   0.000002   0.007939  -0.006886  -0.009156

                     11         12         13         14         15
                   -0.8110    -0.7580    -0.6739    -0.5725    -0.5514
                     A          A          A          A          A   
    1  C  1  S    0.015950   0.066450  -0.000000  -0.012906   0.008667
    2  C  1  S   -0.083146  -0.262921  -0.000000   0.032934  -0.002186
    3  C  1  X    0.433543   0.112857  -0.000000   0.081865  -0.136833
    4  C  1  Y    0.226900  -0.424798  -0.000000  -0.191304   0.086542
    5  C  1  Z    0.000000  -0.000000   0.539124  -0.000000   0.000000
    6  CL 2  S    0.012717   0.031611  -0.000000   0.004464  -0.004757
    7  CL 2  S   -0.039963  -0.098857  -0.000000  -0.013256   0.014342
    8  CL 2  X   -0.006357   0.112917  -0.000000  -0.098908  -0.199818
    9  CL 2  Y   -0.053910  -0.084332  -0.000000  -0.210482  -0.050294
   10  CL 2  Z    0.000000  -0.000000  -0.130928  -0.000000   0.000000
   11  CL 2  S    0.170550   0.431355  -0.000000   0.070700  -0.072550
   12  CL 2  X    0.026671  -0.365708  -0.000000   0.365575   0.709193
   13  CL 2  Y    0.172069   0.265647  -0.000000   0.744826   0.191995
   14  CL 2  Z    0.000000  -0.000000   0.457297  -0.000000   0.000000
   15  H  3  S   -0.306909   0.128148  -0.000000   0.247518  -0.065575
   16  H  4  S   -0.314539  -0.076076  -0.000000   0.177037  -0.143108
   17  N  5  S    0.011838  -0.067468  -0.000000   0.053271  -0.045202
   18  N  5  S   -0.084498   0.310844  -0.000000  -0.279638   0.248166
   19  N  5  X   -0.426252   0.192951  -0.000000  -0.142974   0.353547
   20  N  5  Y   -0.231502  -0.336376  -0.000000   0.318872  -0.413316
   21  N  5  Z    0.000000  -0.000000   0.557405  -0.000000   0.000000
   22  H  6  S   -0.016005   0.081255  -0.000000  -0.187592   0.323237

                     16         17         18         19         20
                   -0.5459    -0.3415     0.0534     0.1820     0.3664
                     A          A          A          A          A   
    1  C  1  S   -0.000000  -0.015019  -0.000000  -0.137581  -0.123225
    2  C  1  S   -0.000000   0.049091  -0.000000   0.757550   0.752562
    3  C  1  X   -0.000000   0.060108  -0.000000  -0.483686  -0.058026
    4  C  1  Y   -0.000000  -0.009564  -0.000000   0.564162  -0.345419
    5  C  1  Z   -0.188080  -0.000000   0.863893   0.000000  -0.000000
    6  CL 2  S   -0.000000  -0.000379  -0.000000  -0.022906  -0.004307
    7  CL 2  S   -0.000000   0.001319  -0.000000   0.064256   0.012830
    8  CL 2  X   -0.000000   0.043302  -0.000000   0.145317   0.021344
    9  CL 2  Y   -0.000000  -0.021594  -0.000000  -0.171957  -0.023970
   10  CL 2  Z   -0.249574  -0.000000   0.062251   0.000000  -0.000000
   11  CL 2  S   -0.000000  -0.003442  -0.000000  -0.415051  -0.070328
   12  CL 2  X   -0.000000  -0.155661  -0.000000  -0.588475  -0.087172
   13  CL 2  Y   -0.000000   0.075956  -0.000000   0.695116   0.098661
   14  CL 2  Z    0.899202  -0.000000  -0.242269   0.000000  -0.000000
   15  H  3  S   -0.000000   0.063527  -0.000000  -0.182244  -0.799498
   16  H  4  S   -0.000000   0.087951  -0.000000  -0.325156   0.935502
   17  N  5  S   -0.000000   0.041334  -0.000000  -0.019494   0.110262
   18  N  5  S   -0.000000  -0.212563  -0.000000   0.149161  -0.732270
   19  N  5  X   -0.000000  -0.185169  -0.000000   0.258250  -0.004823
   20  N  5  Y   -0.000000   0.239414  -0.000000   0.031381  -0.547983
   21  N  5  Z   -0.457700  -0.000000  -0.732377   0.000000  -0.000000
   22  H  6  S   -0.000000   0.923833  -0.000000  -0.016968  -0.006813

                     21         22
                    0.5372     0.7084
                     A          A   
    1  C  1  S    0.060428  -0.115460
    2  C  1  S   -0.412309   0.855847
    3  C  1  X    0.270303   1.141021
    4  C  1  Y    0.896186   0.084607
    5  C  1  Z    0.000000  -0.000000
    6  CL 2  S   -0.005865   0.002703
    7  CL 2  S    0.015594  -0.006592
    8  CL 2  X    0.044489   0.007151
    9  CL 2  Y   -0.013308   0.031880
   10  CL 2  Z    0.000000  -0.000000
   11  CL 2  S   -0.117519   0.060628
   12  CL 2  X   -0.190621  -0.028461
   13  CL 2  Y    0.060934  -0.138673
   14  CL 2  Z    0.000000  -0.000000
   15  H  3  S    0.953804   0.043890
   16  H  4  S    0.651811  -0.214429
   17  N  5  S    0.061913   0.104011
   18  N  5  S   -0.451705  -0.834143
   19  N  5  X   -0.030101   1.042453
   20  N  5  Y   -0.641616   0.284215
   21  N  5  Z    0.000000  -0.000000
   22  H  6  S   -0.016196  -0.007167
 ...... END OF RHF CALCULATION ......
 STEP CPU TIME =     0.10 TOTAL CPU TIME =          0.2 (      0.0 MIN)
 TOTAL WALL CLOCK TIME=          0.2 SECONDS, CPU UTILIZATION IS    76.00%

     ----------------------------------------------------------------
     PROPERTY VALUES FOR THE RHF   SELF-CONSISTENT FIELD WAVEFUNCTION
     ----------------------------------------------------------------

          -----------------
          ENERGY COMPONENTS
          -----------------

         WAVEFUNCTION NORMALIZATION =       1.0000000000

                ONE ELECTRON ENERGY =    -933.7614826710
                TWO ELECTRON ENERGY =     294.0687033212
           NUCLEAR REPULSION ENERGY =      92.8042509519
                                      ------------------
                       TOTAL ENERGY =    -546.8885283979

 ELECTRON-ELECTRON POTENTIAL ENERGY =     294.0687033212
  NUCLEUS-ELECTRON POTENTIAL ENERGY =   -1471.9311703176
   NUCLEUS-NUCLEUS POTENTIAL ENERGY =      92.8042509519
                                      ------------------
             TOTAL POTENTIAL ENERGY =   -1085.0582160445
               TOTAL KINETIC ENERGY =     538.1696876466
                 VIRIAL RATIO (V/T) =       2.0162009139

  ...... PI ENERGY ANALYSIS ......

 ENERGY ANALYSIS:
            FOCK ENERGY=   -345.6241104568
          BARE H ENERGY=   -933.7614826710
     ELECTRONIC ENERGY =   -639.6927965639
         KINETIC ENERGY=    538.1696876466
          N-N REPULSION=     92.8042509519
           TOTAL ENERGY=   -546.8885456120
        SIGMA PART(1+2)=   -567.6917477173
               (K,V1,2)=    492.0485696351  -1300.1983951015    240.4580777491
           PI PART(1+2)=    -72.0010488466
               (K,V1,2)=     46.1211180115   -171.7327752161     53.6106083580
  SIGMA SKELETON, ERROR=   -474.8874967654      0.0000000000
             MIXED PART= 0.00000E+00 0.00000E+00 0.00000E+00 0.00000E+00
 ...... END OF PI ENERGY ANALYSIS ......

          ---------------------------------------
          MULLIKEN AND LOWDIN POPULATION ANALYSES
          ---------------------------------------

     ATOMIC MULLIKEN POPULATION IN EACH MOLECULAR ORBITAL

                      1          2          3          4          5

                  2.000000   2.000000   2.000000   2.000000   2.000000

    1             0.000006  -0.001580   2.002445  -0.001104  -0.000824
    2             1.999993   0.000001  -0.000424   2.001107   2.000824
    3             0.000000   0.000002  -0.000884  -0.000001   0.000000
    4             0.000000  -0.000768  -0.000012  -0.000003  -0.000001
    5            -0.000000   2.002345  -0.001125   0.000001   0.000002
    6             0.000000  -0.000000  -0.000000   0.000000  -0.000000

                      6          7          8          9         10

                  2.000000   2.000000   2.000000   2.000000   2.000000

    1            -0.000039  -0.000047   0.632224   0.281896   0.690674
    2             2.000039   2.000047   0.120597   1.480231   0.203219
    3             0.000000   0.000001   0.027215   0.010440   0.325199
    4             0.000000  -0.000002   0.088954   0.026929   0.253874
    5             0.000000   0.000001   1.130748   0.200335   0.526795
    6             0.000000   0.000000   0.000261   0.000169   0.000239

                     11         12         13         14         15

                  2.000000   2.000000   2.000000   2.000000   2.000000

    1             0.658521   0.612813   0.777990   0.096695   0.049358
    2             0.121510   0.768591   0.457448   1.309471   1.014721
    3             0.300524   0.048205   0.000000   0.125327   0.008673
    4             0.274646   0.015778   0.000000   0.061440   0.036174
    5             0.644067   0.539133   0.764562   0.333183   0.672649
    6             0.000731   0.015479   0.000000   0.073883   0.218425

                     16

                  2.000000

    1             0.070592
    2             1.478100
    3             0.000000
    4             0.000000
    5             0.451308
    6             0.000000

               ----- POPULATIONS IN EACH AO -----
                             MULLIKEN      LOWDIN
              1  C  1  S      1.99369     1.98691
              2  C  1  S      1.17947     1.09648
              3  C  1  X      0.86533     0.94095
              4  C  1  Y      0.98259     1.00180
              5  C  1  Z      0.84854     0.85467
              6  CL 2  S      1.99997     1.99989
              7  CL 2  S      1.99886     1.99881
              8  CL 2  X      1.99360     1.98820
              9  CL 2  Y      1.99205     1.98540
             10  CL 2  Z      1.99904     1.99807
             11  CL 2  S      1.95815     1.91989
             12  CL 2  X      1.58743     1.60231
             13  CL 2  Y      1.48982     1.50927
             14  CL 2  Z      1.93654     1.93428
             15  H  3  S      0.84470     0.90280
             16  H  4  S      0.75701     0.82541
             17  N  5  S      1.99620     1.99364
             18  N  5  S      1.61738     1.45049
             19  N  5  X      1.17507     1.22464
             20  N  5  Y      1.25948     1.26341
             21  N  5  Z      1.21587     1.21298
             22  H  6  S      0.30919     0.30972

          ----- MULLIKEN ATOMIC OVERLAP POPULATIONS -----
          (OFF-DIAGONAL ELEMENTS NEED TO BE MULTIPLIED BY 2)

             1           2           3           4           5

    1    4.7634826
    2    0.2381518  16.7659989
    3    0.3813441  -0.0235230   0.5105758
    4   -0.0394257  -0.0033087   0.0027637   0.4784011
    5    0.5267281  -0.0218466  -0.0261920   0.3196633   6.4479103
    6   -0.0006594   0.0000057  -0.0002680  -0.0010840   0.0177402

             6

    6    0.2934523

          TOTAL MULLIKEN AND LOWDIN ATOMIC POPULATIONS
       ATOM         MULL.POP.    CHARGE          LOW.POP.     CHARGE
    1 C             5.869622    0.130378         5.880809    0.119191
    2 CL           16.955478    0.044522        16.936116    0.063884
    3 H             0.844701    0.155299         0.902801    0.097199
    4 H             0.757010    0.242990         0.825405    0.174595
    5 N             7.264003   -0.264003         7.145151   -0.145151
    6 H             0.309187    0.690813         0.309717    0.690283

          -------------------------------
          BOND ORDER AND VALENCE ANALYSIS     BOND ORDER THRESHOLD=0.050
          -------------------------------

                   BOND                       BOND                       BOND
  ATOM PAIR DIST  ORDER      ATOM PAIR DIST  ORDER      ATOM PAIR DIST  ORDER
    1   2  1.755  0.993        1   3  1.099  0.928        1   5  1.269  1.936
    2   5  2.680  0.078        2   6  5.474  0.074        4   5  1.048  0.886
    5   6  2.860  0.404

                       TOTAL       BONDED        FREE
      ATOM            VALENCE     VALENCE     VALENCE
    1 C                 3.886       3.886       0.000
    2 CL                1.172       1.172       0.000
    3 H                 0.976       0.976      -0.000
    4 H                 0.941       0.941       0.000
    5 N                 3.309       3.309      -0.000
    6 H                 0.523       0.523      -0.000

          ---------------------
          ELECTROSTATIC MOMENTS
          ---------------------

 POINT   1           X           Y           Z (BOHR)    CHARGE
               -12.286685    6.360985    0.000000        1.00 (A.U.)
         DX          DY          DZ         /D/  (DEBYE)
    12.365059   -8.763107    0.000000   15.155419
 ...... END OF PROPERTY EVALUATION ......
 STEP CPU TIME =     0.03 TOTAL CPU TIME =          0.2 (      0.0 MIN)
 TOTAL WALL CLOCK TIME=          0.3 SECONDS, CPU UTILIZATION IS    78.57%


 JUMPING OFF SADDLE POINT ALONG THE IMAGINARY NORMAL MODE...

 $HESS GROUP READ FROM CARDS
 ENERGY IS     -546.8885284089 E(NUC) IS       92.8042511448                     
 INITIAL DISPLACEMENT= -0.05 ALONG MODE WITH FREQUENCY=     870.829 I CM**-1
 THE COMPONENTS OF THE DISPLACEMENT ARE (BOHR) -
   -0.000326   0.000222  -0.000000
   -0.000310   0.000170   0.000000
   -0.000112   0.000287  -0.000000
   -0.002859   0.002069  -0.000000
   -0.001330   0.001603  -0.000000
    0.036081  -0.033163   0.000000

 *********************************************
 ***** STARTING CONSTRAINED OPTIMIZATION *****
 *** TO FIND THE NEXT REACTION PATH POINT ****
 *********************************************
 CONSTRAINED OPTIMIZATION POINT   1 FOR PATH POINT   1
 COORDINATES OF SYMMETRY UNIQUE ATOMS (ANGS)
   ATOM   CHARGE       X              Y              Z
 ------------------------------------------------------------
 C           6.0  -6.2196686235   2.6343391475  -0.0000000000
 CL         17.0  -7.3702362516   3.9598879166   0.0000000000
 H           1.0  -6.6720125596   1.6331931877  -0.0000000000
 H           1.0  -4.6224692603   3.7823629183  -0.0000000000
 N           7.0  -4.9609216501   2.7910047187  -0.0000000000
 H           1.0  -2.8494586132   0.7826733655   0.0000000000
 ...... END OF ONE-ELECTRON INTEGRALS ......
 STEP CPU TIME =     0.02 TOTAL CPU TIME =          0.2 (      0.0 MIN)
 TOTAL WALL CLOCK TIME=          0.3 SECONDS, CPU UTILIZATION IS    82.76%
 TOTAL NUMBER OF NONZERO TWO-ELECTRON INTEGRALS =               16310
          2 INTEGRAL RECORDS WERE STORED ON DISK FILE  8.
  ...... END OF TWO-ELECTRON INTEGRALS .....
 STEP CPU TIME =     0.01 TOTAL CPU TIME =          0.2 (      0.0 MIN)
 TOTAL WALL CLOCK TIME=          0.3 SECONDS, CPU UTILIZATION IS    80.65%

          --------------------------
                 RHF SCF CALCULATION
          --------------------------
     DENSITY MATRIX CONV=  1.00E-05

 ITER EX DEM     TOTAL ENERGY        E CHANGE  DENSITY CHANGE     ORB. GRAD
          ---------------START SECOND ORDER SCF---------------
   1  0  0     -546.8854513498  -546.8854513498   0.005105117   0.000679269
   2  1  0     -546.8854656204    -0.0000142706   0.001764005   0.000333547
   3  2  0     -546.8854681873    -0.0000025668   0.000546828   0.000156193
   4  3  0     -546.8854684631    -0.0000002759   0.000356917   0.000095380
   5  4  0     -546.8854685287    -0.0000000656   0.000074853   0.000036946
   6  5  0     -546.8854685380    -0.0000000093   0.000029088   0.000005782
   7  6  0     -546.8854685387    -0.0000000008   0.000009394   0.000001241
   8  7  0     -546.8854685388    -0.0000000001   0.000003257   0.000000334

          -----------------
          DENSITY CONVERGED
          -----------------
     TIME TO FORM FOCK OPERATORS=       0.0 SECONDS (       0.0 SEC/ITER)
     TIME TO SOLVE SCF EQUATIONS=       0.0 SECONDS (       0.0 SEC/ITER)

 FINAL RHF ENERGY IS     -546.8854685388 AFTER   8 ITERATIONS
 ...... END OF RHF CALCULATION ......
 STEP CPU TIME =     0.03 TOTAL CPU TIME =          0.3 (      0.0 MIN)
 TOTAL WALL CLOCK TIME=          0.3 SECONDS, CPU UTILIZATION IS    82.35%
 ..... END OF 1-ELECTRON GRADIENT ......
 STEP CPU TIME =     0.01 TOTAL CPU TIME =          0.3 (      0.0 MIN)
 TOTAL WALL CLOCK TIME=          0.3 SECONDS, CPU UTILIZATION IS    82.86%
 ...... END OF 2-ELECTRON GRADIENT ......
 STEP CPU TIME =     0.02 TOTAL CPU TIME =          0.3 (      0.0 MIN)
 TOTAL WALL CLOCK TIME=          0.4 SECONDS, CPU UTILIZATION IS    86.11%

 UNITS ARE HARTREE/BOHR    E'X               E'Y               E'Z 
    1 C                0.000556906      -0.000039008       0.000000000
    2 CL               0.000636959      -0.000223769      -0.000000000
    3 H               -0.000027747      -0.000020785       0.000000000
    4 H                0.000140120      -0.000061421       0.000000000
    5 N               -0.022086860       0.020003679      -0.000000000
    6 H                0.020780623      -0.019658698      -0.000000000

 CURRENT OPTIMIZATION POINT :
 ENERGY                                 =  -546.8854685 HARTREE
 MASS WEIGHTED TANGENT GRADIENT NORM    =     0.0044962 HARTREE/BOHR-SQRT(AMU)
 NEXT GEOMETRY STEP HAS PREDICTED ANGLE =       172.805 DEGREES
 AND CARTESIAN RMS DISPLACEMENT         =     0.0974575 BOHR

 CONSTRAINED OPTIMIZATION POINT   2 FOR PATH POINT   1
 COORDINATES OF SYMMETRY UNIQUE ATOMS (ANGS)
   ATOM   CHARGE       X              Y              Z
 ------------------------------------------------------------
 C           6.0  -6.2194585865   2.6342074132  -0.0000000000
 CL         17.0  -7.3700692072   3.9597951542   0.0000000000
 H           1.0  -6.6719591907   1.6330256598  -0.0000000000
 H           1.0  -4.6208453030   3.7809147161  -0.0000000000
 N           7.0  -4.9589296861   2.7889424246   0.0000000000
 H           1.0  -2.8871098490   0.8177304729  -0.0000000000
 ...... END OF ONE-ELECTRON INTEGRALS ......
 STEP CPU TIME =     0.00 TOTAL CPU TIME =          0.3 (      0.0 MIN)
 TOTAL WALL CLOCK TIME=          0.4 SECONDS, CPU UTILIZATION IS    86.11%
 TOTAL NUMBER OF NONZERO TWO-ELECTRON INTEGRALS =               16330
          2 INTEGRAL RECORDS WERE STORED ON DISK FILE  8.
  ...... END OF TWO-ELECTRON INTEGRALS .....
 STEP CPU TIME =     0.01 TOTAL CPU TIME =          0.3 (      0.0 MIN)
 TOTAL WALL CLOCK TIME=          0.4 SECONDS, CPU UTILIZATION IS    86.49%

          --------------------------
                 RHF SCF CALCULATION
          --------------------------
     DENSITY MATRIX CONV=  1.00E-05

 ITER EX DEM     TOTAL ENERGY        E CHANGE  DENSITY CHANGE     ORB. GRAD
          ---------------START SECOND ORDER SCF---------------
   1  0  0     -546.8885251880  -546.8885251880   0.005019466   0.000706637
   2  1  0     -546.8885394019    -0.0000142140   0.001989241   0.000320663
   3  2  0     -546.8885420397    -0.0000026378   0.000612287   0.000205237
   4  3  0     -546.8885423408    -0.0000003011   0.000308359   0.000116066
   5  4  0     -546.8885424254    -0.0000000846   0.000082444   0.000026585
   6  5  0     -546.8885424349    -0.0000000095   0.000034616   0.000007674
   7  6  0     -546.8885424356    -0.0000000008   0.000005674   0.000001596
   8  7  0     -546.8885424357    -0.0000000000   0.000002290   0.000000299

          -----------------
          DENSITY CONVERGED
          -----------------
     TIME TO FORM FOCK OPERATORS=       0.0 SECONDS (       0.0 SEC/ITER)
     TIME TO SOLVE SCF EQUATIONS=       0.0 SECONDS (       0.0 SEC/ITER)

 FINAL RHF ENERGY IS     -546.8885424357 AFTER   8 ITERATIONS
 ...... END OF RHF CALCULATION ......
 STEP CPU TIME =     0.02 TOTAL CPU TIME =          0.3 (      0.0 MIN)
 TOTAL WALL CLOCK TIME=          0.4 SECONDS, CPU UTILIZATION IS    85.00%
 ..... END OF 1-ELECTRON GRADIENT ......
 STEP CPU TIME =     0.01 TOTAL CPU TIME =          0.4 (      0.0 MIN)
 TOTAL WALL CLOCK TIME=          0.4 SECONDS, CPU UTILIZATION IS    87.50%
 ...... END OF 2-ELECTRON GRADIENT ......
 STEP CPU TIME =     0.01 TOTAL CPU TIME =          0.4 (      0.0 MIN)
 TOTAL WALL CLOCK TIME=          0.4 SECONDS, CPU UTILIZATION IS    87.80%

 UNITS ARE HARTREE/BOHR    E'X               E'Y               E'Z 
    1 C               -0.000600992       0.000189924      -0.000000000
    2 CL              -0.000093278       0.000159060      -0.000000000
    3 H                0.000005309       0.000016119       0.000000000
    4 H               -0.000130252       0.000427595       0.000000000
    5 N               -0.021962468       0.020711842      -0.000000000
    6 H                0.022781681      -0.021504541       0.000000000

 WARNING! POSITIVE DEFINITENESS ENDANGERED IN BFGS UPDATE OF HESSIAN. THIS MAY CAUSE TROUBLE LATER....

 ANGLE TO PREVIOUS OPTIMIZATION POINT IS 172.805
 LINEAR INTERPOLATION GIVES ANGLE        172.757

 CURRENT OPTIMIZATION POINT :
 ENERGY                                 =  -546.8885424 HARTREE
 MASS WEIGHTED TANGENT GRADIENT NORM    =     0.0000225 HARTREE/BOHR-SQRT(AMU)
 NEXT GEOMETRY STEP HAS PREDICTED ANGLE =         0.048 DEGREES
 AND CARTESIAN RMS DISPLACEMENT         =     0.0000158 BOHR

 *******************************************
 ***** END OF CONSTRAINED OPTIMIZATION *****
 *******************************************

 ANGLE BETWEEN GRADIENTS AT CURRENT AND PREVIOUS IRC POINT = 172.757
 ENERGY WAS LOWERED BY      0.0030738969 HARTREE DURING OPTIMIZATION

 ***** NEXT POINT ON IRC FOUND *****
 STEP DISTANCE IS   0.00632 SQRT(AMU)-BOHR)

1         POINT   1 ON THE REACTION PATH
          ******************************
          AT PATH DISTANCE STOTAL =   0.00632     SQRT(AMU)-BOHR
          TOTAL ENERGY            =  -546.8885424 HARTREE
            2 CONSTRAINED OPTIMIZATION STEPS WERE PERFORMED
  
 COORDINATES OF ALL ATOMS ARE (ANGS)
   ATOM   CHARGE       X              Y              Z
 ------------------------------------------------------------
 C           6.0  -6.2194585865   2.6342074132  -0.0000000000
 CL         17.0  -7.3700692072   3.9597951542   0.0000000000
 H           1.0  -6.6719591907   1.6330256598  -0.0000000000
 H           1.0  -4.6208453030   3.7809147161  -0.0000000000
 N           7.0  -4.9589296861   2.7889424246   0.0000000000
 H           1.0  -2.8871098490   0.8177304729  -0.0000000000
  

          INTERNUCLEAR DISTANCES (ANGS.)
          ------------------------------

                1 C          2 CL         3 H          4 H          5 N     

   1 C       0.0000000    1.7553027 *  1.0986909 *  1.9673592 *  1.2699906 *
   2 CL      1.7553027 *  0.0000000    2.4292414 *  2.7550373 *  2.6803899 *
   3 H       1.0986909 *  2.4292414 *  0.0000000    2.9699319 *  2.0665463 *
   4 H       1.9673592 *  2.7550373 *  2.9699319 *  0.0000000    1.0480029 *
   5 N       1.2699906 *  2.6803899 *  2.0665463 *  1.0480029 *  0.0000000  
   6 H       3.7952782    5.4744402    3.8716651    3.4331180    2.8597402 *

                6 H     

   1 C       3.7952782  
   2 CL      5.4744402  
   3 H       3.8716651  
   4 H       3.4331180  
   5 N       2.8597402 *
   6 H       0.0000000  

  * ... LESS THAN  3.000


          CURRENT CARTESIAN GRADIENT
          ATOM               DE/DX          DE/DY          DE/DZ
          -----------------------------------------------------------
          C               -0.0006006663   0.0001898598  -0.0000000000
          CL              -0.0000930725   0.0001589528  -0.0000000000
          H                0.0000052998   0.0000161086   0.0000000000
          H               -0.0001301763   0.0004274581   0.0000000000
          N               -0.0219625033   0.0207116426  -0.0000000000
          H                0.0227811191  -0.0215040219   0.0000000000
  
 CONVERGED ORBITALS AT IRC POINT                    1

                      1          2          3          4          5
                 -103.8495   -15.6054   -11.3724   -10.5388    -7.9816
                     A          A          A          A          A   
    1  C  1  S   -0.000054   0.000501  -0.992646   0.001682   0.001353
    2  C  1  S    0.000379  -0.007948  -0.032805  -0.007826  -0.010917
    3  C  1  X   -0.000230  -0.005820  -0.001734   0.004387   0.005838
    4  C  1  Y    0.000282  -0.001013   0.000232  -0.005380  -0.007097
    5  C  1  Z    0.000000   0.000000   0.000000   0.000000   0.000000
    6  CL 2  S    0.994494   0.000006  -0.000108  -0.376827   0.004920
    7  CL 2  S    0.015776  -0.000010   0.000380   1.052764  -0.013996
    8  CL 2  X    0.000082  -0.000050  -0.000307   0.007507   0.661833
    9  CL 2  Y   -0.000091  -0.000005   0.000311  -0.008102  -0.733176
   10  CL 2  Z    0.000000   0.000000   0.000000   0.000000   0.000000
   11  CL 2  S   -0.001865   0.000301   0.004127   0.045790   0.005860
   12  CL 2  X   -0.000159   0.000385   0.002758   0.003849   0.032230
   13  CL 2  Y    0.000181  -0.000017  -0.002890  -0.004323  -0.035845
   14  CL 2  Z    0.000000   0.000000   0.000000   0.000000   0.000000
   15  H  3  S    0.000005   0.000129   0.006475  -0.000142   0.000076
   16  H  4  S    0.000039  -0.006411   0.000596  -0.000792  -0.000604
   17  N  5  S    0.000003   0.993665  -0.000114  -0.000060  -0.000052
   18  N  5  S   -0.000028   0.030350   0.006588   0.000574   0.000573
   19  N  5  X    0.000006  -0.005014  -0.003239  -0.000093  -0.000185
   20  N  5  Y   -0.000043   0.002927  -0.000603   0.000668   0.000729
   21  N  5  Z    0.000000   0.000000   0.000000   0.000000   0.000000
   22  H  6  S   -0.000000  -0.000141   0.000007   0.000009  -0.000001

                      6          7          8          9         10
                   -7.9755    -7.9753    -1.4067    -1.2093    -0.9841
                     A          A          A          A          A   
    1  C  1  S    0.000000  -0.000042  -0.148471  -0.045852  -0.150833
    2  C  1  S    0.000000   0.000326   0.361713   0.145003   0.490508
    3  C  1  X    0.000000   0.003199   0.132075  -0.179050  -0.043134
    4  C  1  Y    0.000000   0.002076   0.044017   0.073311  -0.217342
    5  C  1  Z    0.003138   0.000000   0.000000   0.000000   0.000000
    6  CL 2  S    0.000000  -0.000051   0.018793   0.077854  -0.028617
    7  CL 2  S    0.000000   0.000144  -0.063207  -0.258276   0.092674
    8  CL 2  X    0.000000  -0.734520  -0.017113  -0.026406  -0.006195
    9  CL 2  Y    0.000000  -0.662998   0.015227   0.032089   0.028512
   10  CL 2  Z   -0.989477   0.000000   0.000000   0.000000   0.000000
   11  CL 2  S    0.000000   0.000063   0.184500   0.833895  -0.343915
   12  CL 2  X    0.000000  -0.030015   0.045272   0.077834   0.015202
   13  CL 2  Y    0.000000  -0.027223  -0.041511  -0.092035  -0.084856
   14  CL 2  Z   -0.040543   0.000000   0.000000   0.000000   0.000000
   15  H  3  S    0.000000   0.000347   0.052794   0.037202   0.274122
   16  H  4  S    0.000000   0.000916   0.097539  -0.071025  -0.260462
   17  N  5  S    0.000000   0.000084  -0.190127   0.089718   0.067997
   18  N  5  S    0.000000  -0.001504   0.616586  -0.314302  -0.276656
   19  N  5  X    0.000000   0.000595  -0.156927   0.009338  -0.221961
   20  N  5  Y    0.000000   0.000010   0.049391  -0.021207  -0.250402
   21  N  5  Z   -0.000374   0.000000   0.000000   0.000000   0.000000
   22  H  6  S    0.000000  -0.000002   0.007946  -0.006891  -0.009168

                     11         12         13         14         15
                   -0.8105    -0.7579    -0.6736    -0.5726    -0.5515
                     A          A          A          A          A   
    1  C  1  S    0.015785  -0.066438   0.000000   0.012928  -0.008608
    2  C  1  S   -0.082378   0.262863   0.000000  -0.032856   0.002104
    3  C  1  X    0.433831  -0.111950   0.000000  -0.082457   0.136666
    4  C  1  Y    0.225873   0.425106   0.000000   0.191847  -0.085720
    5  C  1  Z    0.000000   0.000000  -0.538935   0.000000   0.000000
    6  CL 2  S    0.012731  -0.031580   0.000000  -0.004491   0.004744
    7  CL 2  S   -0.040002   0.098759   0.000000   0.013340  -0.014304
    8  CL 2  X   -0.006271  -0.112986   0.000000   0.097990   0.200215
    9  CL 2  Y   -0.054040   0.084227   0.000000   0.210253   0.051267
   10  CL 2  Z    0.000000   0.000000   0.131260   0.000000   0.000000
   11  CL 2  S    0.170784  -0.430938   0.000000  -0.071114   0.072335
   12  CL 2  X    0.026412   0.365970   0.000000  -0.362326  -0.710656
   13  CL 2  Y    0.172508  -0.265319   0.000000  -0.743943  -0.195455
   14  CL 2  Z    0.000000   0.000000  -0.458493   0.000000   0.000000
   15  H  3  S   -0.306392  -0.128783   0.000000  -0.247785   0.064222
   16  H  4  S   -0.315033   0.076017   0.000000  -0.178050   0.142592
   17  N  5  S    0.011858   0.067552   0.000000  -0.053526   0.045066
   18  N  5  S   -0.084516  -0.311290   0.000000   0.280962  -0.247381
   19  N  5  X   -0.426223  -0.193466   0.000000   0.144375  -0.352996
   20  N  5  Y   -0.232539   0.335775   0.000000  -0.320497   0.411615
   21  N  5  Z    0.000000   0.000000  -0.556865   0.000000   0.000000
   22  H  6  S   -0.015970  -0.081325   0.000000   0.188721  -0.322222

                     16         17         18         19         20
                   -0.5458    -0.3416     0.0532     0.1820     0.3665
                     A          A          A          A          A   
    1  C  1  S    0.000000   0.015021   0.000000  -0.137708   0.122989
    2  C  1  S    0.000000  -0.049135   0.000000   0.758124  -0.751142
    3  C  1  X    0.000000  -0.060211   0.000000  -0.482936   0.058562
    4  C  1  Y    0.000000   0.009529   0.000000   0.564223   0.344868
    5  C  1  Z    0.188802   0.000000  -0.863767   0.000000   0.000000
    6  CL 2  S    0.000000   0.000378   0.000000  -0.022906   0.004314
    7  CL 2  S    0.000000  -0.001314   0.000000   0.064258  -0.012851
    8  CL 2  X    0.000000  -0.043267   0.000000   0.145350  -0.021392
    9  CL 2  Y    0.000000   0.021514   0.000000  -0.171944   0.023960
   10  CL 2  Z    0.249396   0.000000  -0.062267   0.000000   0.000000
   11  CL 2  S    0.000000   0.003418   0.000000  -0.415028   0.070444
   12  CL 2  X    0.000000   0.155534   0.000000  -0.588598   0.087362
   13  CL 2  Y    0.000000  -0.075664   0.000000   0.695054  -0.098628
   14  CL 2  Z   -0.898578   0.000000   0.242322   0.000000   0.000000
   15  H  3  S    0.000000  -0.063276   0.000000  -0.182246   0.798415
   16  H  4  S    0.000000  -0.088098   0.000000  -0.324963  -0.936171
   17  N  5  S    0.000000  -0.041375   0.000000  -0.019399  -0.110170
   18  N  5  S    0.000000   0.212742   0.000000   0.148429   0.731403
   19  N  5  X    0.000000   0.185055   0.000000   0.258344   0.004533
   20  N  5  Y    0.000000  -0.238999   0.000000   0.031839   0.549520
   21  N  5  Z    0.458495   0.000000   0.732189   0.000000   0.000000
   22  H  6  S    0.000000  -0.923952   0.000000  -0.016946   0.006869

                     21         22
                    0.5370     0.7073
                     A          A   
    1  C  1  S   -0.060695   0.115393
    2  C  1  S    0.413984  -0.854320
    3  C  1  X   -0.269665  -1.140735
    4  C  1  Y   -0.896264  -0.084157
    5  C  1  Z    0.000000   0.000000
    6  CL 2  S    0.005863  -0.002715
    7  CL 2  S   -0.015589   0.006621
    8  CL 2  X   -0.044482  -0.007107
    9  CL 2  Y    0.013278  -0.031962
   10  CL 2  Z    0.000000   0.000000
   11  CL 2  S    0.117450  -0.060877
   12  CL 2  X    0.190571   0.028246
   13  CL 2  Y   -0.060806   0.139025
   14  CL 2  Z    0.000000   0.000000
   15  H  3  S   -0.954772  -0.044083
   16  H  4  S   -0.650437   0.212771
   17  N  5  S   -0.061663  -0.104082
   18  N  5  S    0.449638   0.833766
   19  N  5  X    0.030303  -1.041665
   20  N  5  Y    0.641123  -0.282977
   21  N  5  Z    0.000000   0.000000
   22  H  6  S    0.016188   0.007201


                     --------------------
                     INTERNAL COORDINATES
                     --------------------

                 - - ATOMS - -         COORDINATE      COORDINATE
 NO.   TYPE    I  J  K  L  M  N        (BOHR,RAD)       (ANG,DEG)
 ----------------------------------------------------------------
   1 STRETCH   1  3                     2.0762248       1.0986909
   2 STRETCH   1  5                     2.3999342       1.2699906
   3 STRETCH   1  2                     3.3170412       1.7553027
   4 STRETCH   4  5                     1.9804383       1.0480029
   5 STRETCH   5  6                     5.4041254       2.8597402
   6 BEND      1  5  6                  2.2589306     129.4271923
   7 BEND      1  5  4                  2.0214130     115.8184339
   8 BEND      2  1  5                  2.1635052     123.9597150
   9 BEND      2  1  3                  2.0022528     114.7206338
  10 BEND      3  1  5                  2.1174274     121.3196513
  11 BEND      4  5  6                  2.0028417     114.7543738
  12 TORSION   2  1  5  4               0.0000000       0.0000000
  13 TORSION   2  1  5  6               3.1415927     180.0000000
  14 TORSION   3  1  5  4               3.1415927     180.0000000
  15 TORSION   3  1  5  6               0.0000000       0.0000000

 THE NUCLEAR REPULSION AT THE IRC POINT IS       92.7878666377

 * * * IRC RESTART INFORMATION * * *
 COORDINATES FOR $DATA AND ENTIRE $IRC GROUP FOLLOW

 COORDINATES OF SYMMETRY UNIQUE ATOMS (ANGS)
   ATOM   CHARGE       X              Y              Z
 ------------------------------------------------------------
 C           6.0  -6.2194585865   2.6342074132  -0.0000000000
 CL         17.0  -7.3700692072   3.9597951542   0.0000000000
 H           1.0  -6.6719591907   1.6330256598  -0.0000000000
 H           1.0  -4.6208453030   3.7809147161  -0.0000000000
 N           7.0  -4.9589296861   2.7889424246   0.0000000000
 H           1.0  -2.8871098490   0.8177304729  -0.0000000000
 $IRC   PACE=GS2        STRIDE= 0.10000   NPOINT=??
        STOTAL=  0.006317   NEXTPT=   2
        NPRT= 0   NPUN= 0   SADDLE=.FALSE.
        GA(   1)=-6.006662914E-04, 1.898597878E-04,-1.921521395E-17
        GA(   4)=-9.307247832E-05, 1.589527534E-04,-3.004011706E-17
        GA(   7)= 5.299756793E-06, 1.610855319E-05, 1.005738820E-16
        GA(  10)=-1.301763420E-04, 4.274580857E-04, 2.615194420E-16
        GA(  13)=-2.196250327E-02, 2.071164255E-02,-3.390307418E-16
        GA(  16)= 2.278111912E-02,-2.150402192E-02, 7.625805346E-20
 $END   
 A GS2 RESTART ALSO REQUIRES THE UPDATED $HESS GROUP FROM THE PUNCH FILE

 *********************************************
 ***** STARTING CONSTRAINED OPTIMIZATION *****
 *** TO FIND THE NEXT REACTION PATH POINT ****
 *********************************************
 CONSTRAINED OPTIMIZATION POINT   1 FOR PATH POINT   2
 COORDINATES OF SYMMETRY UNIQUE ATOMS (ANGS)
   ATOM   CHARGE       X              Y              Z
 ------------------------------------------------------------
 C           6.0  -6.2193773294   2.6341821421   0.0000000000
 CL         17.0  -7.3700659267   3.9597882806   0.0000000000
 H           1.0  -6.6719682637   1.6330003423  -0.0000000000
 H           1.0  -4.6206427511   3.7802234771  -0.0000000000
 N           7.0  -4.9563510680   2.7865119222   0.0000000000
 H           1.0  -2.9242128809   0.8527566688  -0.0000000000
 ...... END OF ONE-ELECTRON INTEGRALS ......
 STEP CPU TIME =     0.01 TOTAL CPU TIME =          0.4 (      0.0 MIN)
 TOTAL WALL CLOCK TIME=          0.4 SECONDS, CPU UTILIZATION IS    86.05%
 TOTAL NUMBER OF NONZERO TWO-ELECTRON INTEGRALS =               16364
          2 INTEGRAL RECORDS WERE STORED ON DISK FILE  8.
  ...... END OF TWO-ELECTRON INTEGRALS .....
 STEP CPU TIME =     0.01 TOTAL CPU TIME =          0.4 (      0.0 MIN)
 TOTAL WALL CLOCK TIME=          0.4 SECONDS, CPU UTILIZATION IS    86.36%

          --------------------------
                 RHF SCF CALCULATION
          --------------------------
     DENSITY MATRIX CONV=  1.00E-05

 ITER EX DEM     TOTAL ENERGY        E CHANGE  DENSITY CHANGE     ORB. GRAD
          ---------------START SECOND ORDER SCF---------------
   1  0  0     -546.8918857369  -546.8918857369   0.005008587   0.000783446
   2  1  0     -546.8919024772    -0.0000167404   0.002248840   0.000336834
   3  2  0     -546.8919056237    -0.0000031465   0.000661387   0.000228994
   4  3  0     -546.8919059708    -0.0000003471   0.000315813   0.000126884
   5  4  0     -546.8919060687    -0.0000000978   0.000115041   0.000028982
   6  5  0     -546.8919060799    -0.0000000112   0.000039678   0.000008176
   7  6  0     -546.8919060807    -0.0000000008   0.000006759   0.000001805
   8  7  0     -546.8919060808    -0.0000000001   0.000002273   0.000000361

          -----------------
          DENSITY CONVERGED
          -----------------
     TIME TO FORM FOCK OPERATORS=       0.0 SECONDS (       0.0 SEC/ITER)
     TIME TO SOLVE SCF EQUATIONS=       0.0 SECONDS (       0.0 SEC/ITER)

 FINAL RHF ENERGY IS     -546.8919060808 AFTER   8 ITERATIONS
 ...... END OF RHF CALCULATION ......
 STEP CPU TIME =     0.02 TOTAL CPU TIME =          0.4 (      0.0 MIN)
 TOTAL WALL CLOCK TIME=          0.5 SECONDS, CPU UTILIZATION IS    86.96%
 ..... END OF 1-ELECTRON GRADIENT ......
 STEP CPU TIME =     0.01 TOTAL CPU TIME =          0.4 (      0.0 MIN)
 TOTAL WALL CLOCK TIME=          0.5 SECONDS, CPU UTILIZATION IS    87.23%
 ...... END OF 2-ELECTRON GRADIENT ......
 STEP CPU TIME =     0.01 TOTAL CPU TIME =          0.4 (      0.0 MIN)
 TOTAL WALL CLOCK TIME=          0.5 SECONDS, CPU UTILIZATION IS    87.50%

 UNITS ARE HARTREE/BOHR    E'X               E'Y               E'Z 
    1 C               -0.002551970       0.000549610       0.000000000
    2 CL              -0.000961464       0.000599588      -0.000000000
    3 H                0.000079479       0.000086689       0.000000000
    4 H               -0.000536892       0.001322965       0.000000000
    5 N               -0.020993468       0.020960125      -0.000000000
    6 H                0.024964316      -0.023518977       0.000000000

 CURRENT OPTIMIZATION POINT :
 ENERGY                                 =  -546.8919061 HARTREE
 MASS WEIGHTED TANGENT GRADIENT NORM    =     0.0014341 HARTREE/BOHR-SQRT(AMU)
 NEXT GEOMETRY STEP HAS PREDICTED ANGLE =         1.929 DEGREES
 AND CARTESIAN RMS DISPLACEMENT         =     0.0011037 BOHR

 CONSTRAINED OPTIMIZATION POINT   2 FOR PATH POINT   2
 COORDINATES OF SYMMETRY UNIQUE ATOMS (ANGS)
   ATOM   CHARGE       X              Y              Z
 ------------------------------------------------------------
 C           6.0  -6.2192809807   2.6341601475  -0.0000000000
 CL         17.0  -7.3700474580   3.9597789337   0.0000000000
 H           1.0  -6.6719990146   1.6329739615  -0.0000000000
 H           1.0  -4.6203124163   3.7797998194  -0.0000000000
 N           7.0  -4.9564936459   2.7865818862   0.0000000000
 H           1.0  -2.9243194609   0.8528208019   0.0000000000
 ...... END OF ONE-ELECTRON INTEGRALS ......
 STEP CPU TIME =     0.00 TOTAL CPU TIME =          0.4 (      0.0 MIN)
 TOTAL WALL CLOCK TIME=          0.5 SECONDS, CPU UTILIZATION IS    87.50%
 TOTAL NUMBER OF NONZERO TWO-ELECTRON INTEGRALS =               16364
          2 INTEGRAL RECORDS WERE STORED ON DISK FILE  8.
  ...... END OF TWO-ELECTRON INTEGRALS .....
 STEP CPU TIME =     0.01 TOTAL CPU TIME =          0.4 (      0.0 MIN)
 TOTAL WALL CLOCK TIME=          0.5 SECONDS, CPU UTILIZATION IS    87.76%

          --------------------------
                 RHF SCF CALCULATION
          --------------------------
     DENSITY MATRIX CONV=  1.00E-05

 ITER EX DEM     TOTAL ENERGY        E CHANGE  DENSITY CHANGE     ORB. GRAD
          ---------------START SECOND ORDER SCF---------------
   1  0  0     -546.8919072004  -546.8919072004   0.000281013   0.000076858
   2  1  0     -546.8919072595    -0.0000000591   0.000250651   0.000022248
   3  2  0     -546.8919072674    -0.0000000079   0.000057760   0.000013834
   4  3  0     -546.8919072697    -0.0000000023   0.000005442   0.000001703
   5  4  0     -546.8919072697    -0.0000000000   0.000004254   0.000000672

          -----------------
          DENSITY CONVERGED
          -----------------
     TIME TO FORM FOCK OPERATORS=       0.0 SECONDS (       0.0 SEC/ITER)
     TIME TO SOLVE SCF EQUATIONS=       0.0 SECONDS (       0.0 SEC/ITER)

 FINAL RHF ENERGY IS     -546.8919072697 AFTER   5 ITERATIONS
 ...... END OF RHF CALCULATION ......
 STEP CPU TIME =     0.01 TOTAL CPU TIME =          0.4 (      0.0 MIN)
 TOTAL WALL CLOCK TIME=          0.5 SECONDS, CPU UTILIZATION IS    86.27%
 ..... END OF 1-ELECTRON GRADIENT ......
 STEP CPU TIME =     0.00 TOTAL CPU TIME =          0.4 (      0.0 MIN)
 TOTAL WALL CLOCK TIME=          0.5 SECONDS, CPU UTILIZATION IS    86.27%
 ...... END OF 2-ELECTRON GRADIENT ......
 STEP CPU TIME =     0.01 TOTAL CPU TIME =          0.4 (      0.0 MIN)
 TOTAL WALL CLOCK TIME=          0.5 SECONDS, CPU UTILIZATION IS    86.54%

 UNITS ARE HARTREE/BOHR    E'X               E'Y               E'Z 
    1 C               -0.002191224       0.000554688       0.000000000
    2 CL              -0.000959355       0.000607023      -0.000000000
    3 H                0.000046607       0.000052838       0.000000000
    4 H               -0.000581200       0.001030686       0.000000000
    5 N               -0.021280008       0.021271349      -0.000000000
    6 H                0.024965181      -0.023516585      -0.000000000

 ANGLE TO PREVIOUS OPTIMIZATION POINT IS   1.929
 LINEAR INTERPOLATION GIVES ANGLE          1.926

 CURRENT OPTIMIZATION POINT :
 ENERGY                                 =  -546.8919073 HARTREE
 MASS WEIGHTED TANGENT GRADIENT NORM    =     0.0000035 HARTREE/BOHR-SQRT(AMU)
 NEXT GEOMETRY STEP HAS PREDICTED ANGLE =         0.004 DEGREES
 AND CARTESIAN RMS DISPLACEMENT         =     0.0000029 BOHR

 *******************************************
 ***** END OF CONSTRAINED OPTIMIZATION *****
 *******************************************

 ANGLE BETWEEN GRADIENTS AT CURRENT AND PREVIOUS IRC POINT =   1.926
 ENERGY WAS LOWERED BY      0.0000011889 HARTREE DURING OPTIMIZATION

 ***** NEXT POINT ON IRC FOUND *****
 STEP DISTANCE IS   0.09999 SQRT(AMU)-BOHR)

1         POINT   2 ON THE REACTION PATH
          ******************************
          AT PATH DISTANCE STOTAL =   0.10630     SQRT(AMU)-BOHR
          TOTAL ENERGY            =  -546.8919073 HARTREE
            2 CONSTRAINED OPTIMIZATION STEPS WERE PERFORMED
  
 COORDINATES OF ALL ATOMS ARE (ANGS)
   ATOM   CHARGE       X              Y              Z
 ------------------------------------------------------------
 C           6.0  -6.2192809807   2.6341601475  -0.0000000000
 CL         17.0  -7.3700474580   3.9597789337   0.0000000000
 H           1.0  -6.6719990146   1.6329739615  -0.0000000000
 H           1.0  -4.6203124163   3.7797998194  -0.0000000000
 N           7.0  -4.9564936459   2.7865818862   0.0000000000
 H           1.0  -2.9243194609   0.8528208019   0.0000000000
  

          INTERNUCLEAR DISTANCES (ANGS.)
          ------------------------------

                1 C          2 CL         3 H          4 H          5 N     

   1 C       0.0000000    1.7554283 *  1.0987845 *  1.9670259 *  1.2719529 *
   2 CL      1.7554283 *  0.0000000    2.4292577 *  2.7556189 *  2.6835859 *
   3 H       1.0987845 *  2.4292577 *  0.0000000    2.9695587 *  2.0673098 *
   4 H       1.9670259 *  2.7556189 *  2.9695587 *  0.0000000    1.0485703 *
   5 N       1.2719529 *  2.6835859 *  2.0673098 *  1.0485703 *  0.0000000  
   6 H       3.7456563    5.4238074    3.8280205    3.3828388    2.8052030 *

                6 H     

   1 C       3.7456563  
   2 CL      5.4238074  
   3 H       3.8280205  
   4 H       3.3828388  
   5 N       2.8052030 *
   6 H       0.0000000  

  * ... LESS THAN  3.000


          CURRENT CARTESIAN GRADIENT
          ATOM               DE/DX          DE/DY          DE/DZ
          -----------------------------------------------------------
          C               -0.0021917380   0.0005546805   0.0000000000
          CL              -0.0009593578   0.0006070125  -0.0000000000
          H                0.0000466538   0.0000528866   0.0000000000
          H               -0.0005811374   0.0010311019   0.0000000000
          N               -0.0212796004   0.0212709063  -0.0000000000
          H                0.0249651802  -0.0235165883  -0.0000000000


                     --------------------
                     INTERNAL COORDINATES
                     --------------------

                 - - ATOMS - -         COORDINATE      COORDINATE
 NO.   TYPE    I  J  K  L  M  N        (BOHR,RAD)       (ANG,DEG)
 ----------------------------------------------------------------
   1 STRETCH   1  3                     2.0764016       1.0987845
   2 STRETCH   1  5                     2.4036425       1.2719529
   3 STRETCH   1  2                     3.3172786       1.7554283
   4 STRETCH   4  5                     1.9815106       1.0485703
   5 STRETCH   5  6                     5.3010650       2.8052030
   6 BEND      1  5  6                  2.2608825     129.5390244
   7 BEND      1  5  4                  2.0172904     115.5822232
   8 BEND      2  1  5                  2.1655821     124.0787138
   9 BEND      2  1  3                  2.0020187     114.7072199
  10 BEND      3  1  5                  2.1155846     121.2140663
  11 BEND      4  5  6                  2.0050125     114.8787524
  12 TORSION   2  1  5  4               0.0000000       0.0000000
  13 TORSION   2  1  5  6               3.1415927     180.0000000
  14 TORSION   3  1  5  4               3.1415927     180.0000000
  15 TORSION   3  1  5  6               0.0000000       0.0000000

 THE NUCLEAR REPULSION AT THE IRC POINT IS       92.7829031252

 * * * IRC RESTART INFORMATION * * *
 COORDINATES FOR $DATA AND ENTIRE $IRC GROUP FOLLOW

 COORDINATES OF SYMMETRY UNIQUE ATOMS (ANGS)
   ATOM   CHARGE       X              Y              Z
 ------------------------------------------------------------
 C           6.0  -6.2192809807   2.6341601475  -0.0000000000
 CL         17.0  -7.3700474580   3.9597789337   0.0000000000
 H           1.0  -6.6719990146   1.6329739615  -0.0000000000
 H           1.0  -4.6203124163   3.7797998194  -0.0000000000
 N           7.0  -4.9564936459   2.7865818862   0.0000000000
 H           1.0  -2.9243194609   0.8528208019   0.0000000000
 $IRC   PACE=GS2        STRIDE= 0.10000   NPOINT=??
        STOTAL=  0.106302   NEXTPT=   3
        NPRT= 0   NPUN= 0   SADDLE=.FALSE.
        GA(   1)=-2.191737979E-03, 5.546804798E-04, 1.667158331E-15
        GA(   4)=-9.593577692E-04, 6.070124567E-04,-2.614397260E-16
        GA(   7)= 4.665383704E-05, 5.288658972E-05, 3.837989545E-16
        GA(  10)=-5.811374202E-04, 1.031101938E-03, 3.112388546E-16
        GA(  13)=-2.127960040E-02, 2.127090627E-02,-8.855308831E-16
        GA(  16)= 2.496518019E-02,-2.351658832E-02,-5.179908264E-18
 $END   
 A GS2 RESTART ALSO REQUIRES THE UPDATED $HESS GROUP FROM THE PUNCH FILE

 *********************************************
 ***** STARTING CONSTRAINED OPTIMIZATION *****
 *** TO FIND THE NEXT REACTION PATH POINT ****
 *********************************************
 CONSTRAINED OPTIMIZATION POINT   1 FOR PATH POINT   3
 COORDINATES OF SYMMETRY UNIQUE ATOMS (ANGS)
   ATOM   CHARGE       X              Y              Z
 ------------------------------------------------------------
 C           6.0  -6.2190059419   2.6340905379  -0.0000000000
 CL         17.0  -7.3700061508   3.9597527941   0.0000000000
 H           1.0  -6.6720687146   1.6328949379  -0.0000000000
 H           1.0  -4.6194441327   3.7782590078  -0.0000000000
 N           7.0  -4.9542039290   2.7842932082   0.0000000000
 H           1.0  -2.9616402545   0.8879761270   0.0000000000
 ...... END OF ONE-ELECTRON INTEGRALS ......
 STEP CPU TIME =     0.02 TOTAL CPU TIME =          0.5 (      0.0 MIN)
 TOTAL WALL CLOCK TIME=          0.5 SECONDS, CPU UTILIZATION IS    88.68%
 TOTAL NUMBER OF NONZERO TWO-ELECTRON INTEGRALS =               16394
          2 INTEGRAL RECORDS WERE STORED ON DISK FILE  8.
  ...... END OF TWO-ELECTRON INTEGRALS .....
 STEP CPU TIME =     0.00 TOTAL CPU TIME =          0.5 (      0.0 MIN)
 TOTAL WALL CLOCK TIME=          0.5 SECONDS, CPU UTILIZATION IS    87.04%

          --------------------------
                 RHF SCF CALCULATION
          --------------------------
     DENSITY MATRIX CONV=  1.00E-05

 ITER EX DEM     TOTAL ENERGY        E CHANGE  DENSITY CHANGE     ORB. GRAD
          ---------------START SECOND ORDER SCF---------------
   1  0  0     -546.8955552857  -546.8955552857   0.005284332   0.000802766
   2  1  0     -546.8955730254    -0.0000177398   0.002107708   0.000364911
   3  2  0     -546.8955762853    -0.0000032599   0.000599709   0.000188734
   4  3  0     -546.8955765904    -0.0000003051   0.000367756   0.000113409
   5  4  0     -546.8955766768    -0.0000000864   0.000081110   0.000032521
   6  5  0     -546.8955766869    -0.0000000101   0.000029825   0.000006583
[...]
 TOTAL WALL CLOCK TIME=          6.0 SECONDS, CPU UTILIZATION IS    93.85%
 ..... END OF 1-ELECTRON GRADIENT ......
 STEP CPU TIME =     0.01 TOTAL CPU TIME =          5.7 (      0.1 MIN)
 TOTAL WALL CLOCK TIME=          6.0 SECONDS, CPU UTILIZATION IS    93.86%
 ...... END OF 2-ELECTRON GRADIENT ......
 STEP CPU TIME =     0.01 TOTAL CPU TIME =          5.7 (      0.1 MIN)
 TOTAL WALL CLOCK TIME=          6.0 SECONDS, CPU UTILIZATION IS    93.87%

 UNITS ARE HARTREE/BOHR    E'X               E'Y               E'Z 
    1 C                0.000674212       0.000944915      -0.000000000
    2 CL              -0.002005607       0.000262590      -0.000000000
    3 H                0.000025568       0.000097319      -0.000000000
    4 H                0.000241604      -0.000155347       0.000000000
    5 N                0.001125071      -0.000973224       0.000000000
    6 H               -0.000060848      -0.000176253       0.000000000

 ANGLE TO PREVIOUS OPTIMIZATION POINT IS   0.400
 LINEAR INTERPOLATION GIVES ANGLE          0.399

 CURRENT OPTIMIZATION POINT :
 ENERGY                                 =  -547.2334356 HARTREE
 MASS WEIGHTED TANGENT GRADIENT NORM    =     0.0000038 HARTREE/BOHR-SQRT(AMU)
 NEXT GEOMETRY STEP HAS PREDICTED ANGLE =         0.045 DEGREES
 AND CARTESIAN RMS DISPLACEMENT         =     0.0000304 BOHR

 *******************************************
 ***** END OF CONSTRAINED OPTIMIZATION *****
 *******************************************

 ANGLE BETWEEN GRADIENTS AT CURRENT AND PREVIOUS IRC POINT =   7.709
 ENERGY WAS LOWERED BY      0.0000011966 HARTREE DURING OPTIMIZATION

 ***** NEXT POINT ON IRC FOUND *****
 STEP DISTANCE IS   0.09977 SQRT(AMU)-BOHR)

1         POINT  42 ON THE REACTION PATH
          ******************************
          AT PATH DISTANCE STOTAL =   4.09142     SQRT(AMU)-BOHR
          TOTAL ENERGY            =  -547.2334356 HARTREE
            4 CONSTRAINED OPTIMIZATION STEPS WERE PERFORMED
  
 COORDINATES OF ALL ATOMS ARE (ANGS)
   ATOM   CHARGE       X              Y              Z
 ------------------------------------------------------------
 C           6.0  -6.2368844586   2.6206047022  -0.0000000000
 CL         17.0  -7.3335591609   3.9407059901   0.0000000000
 H           1.0  -6.6514626550   1.5943311177  -0.0000000000
 H           1.0  -4.4968499579   3.7103690219  -0.0000000000
 N           7.0  -4.9431183281   2.7744058196  -0.0000000000
 H           1.0  -4.3106050229   1.9532558051   0.0000000000
  

          INTERNUCLEAR DISTANCES (ANGS.)
          ------------------------------

                1 C          2 CL         3 H          4 H          5 N     

   1 C       0.0000000    1.7162059 *  1.1068480 *  2.0531211 *  1.3028759 *
   2 CL      1.7162059 *  0.0000000    2.4435079 *  2.8460454 *  2.6597864 *
   3 H       1.1068480 *  2.4435079 *  0.0000000    3.0199292    2.0762988 *
   4 H       2.0531211 *  2.8460454 *  3.0199292    0.0000000    1.0369101 *
   5 N       1.3028759 *  2.6597864 *  2.0762988 *  1.0369101 *  0.0000000  
   6 H       2.0386042 *  3.6177631    2.3682148 *  1.7669561 *  1.0365136 *

                6 H     

   1 C       2.0386042 *
   2 CL      3.6177631  
   3 H       2.3682148 *
   4 H       1.7669561 *
   5 N       1.0365136 *
   6 H       0.0000000  

  * ... LESS THAN  3.000


          CURRENT CARTESIAN GRADIENT
          ATOM               DE/DX          DE/DY          DE/DZ
          -----------------------------------------------------------
          C                0.0006741584   0.0009450252  -0.0000000000
          CL              -0.0020055300   0.0002624743  -0.0000000000
          H                0.0000255575   0.0000973383  -0.0000000000
          H                0.0002416955  -0.0001551982   0.0000000000
          N                0.0011248764  -0.0009733166   0.0000000000
          H               -0.0000607573  -0.0001763234   0.0000000000


                     --------------------
                     INTERNAL COORDINATES
                     --------------------

                 - - ATOMS - -         COORDINATE      COORDINATE
 NO.   TYPE    I  J  K  L  M  N        (BOHR,RAD)       (ANG,DEG)
 ----------------------------------------------------------------
   1 STRETCH   1  3                     2.0916395       1.1068480
   2 STRETCH   1  5                     2.4620784       1.3028759
   3 STRETCH   1  2                     3.2431590       1.7162059
   4 STRETCH   4  5                     1.9594760       1.0369101
   5 STRETCH   5  6                     1.9587267       1.0365136
   6 BEND      1  5  6                  2.1088259     120.8268219
   7 BEND      1  5  4                  2.1340366     122.2712879
   8 BEND      2  1  5                  2.1456850     122.9386956
   9 BEND      2  1  3                  2.0644612     118.2849138
  10 BEND      3  1  5                  2.0730391     118.7763906
  11 BEND      4  5  6                  2.0403229     116.9018901
  12 TORSION   2  1  5  4               0.0000000       0.0000000
  13 TORSION   2  1  5  6               3.1415927     180.0000000
  14 TORSION   3  1  5  4               3.1415927     180.0000000
  15 TORSION   3  1  5  6               0.0000000       0.0000000

 THE NUCLEAR REPULSION AT THE IRC POINT IS       97.1151451825

 * * * IRC RESTART INFORMATION * * *
 COORDINATES FOR $DATA AND ENTIRE $IRC GROUP FOLLOW

 COORDINATES OF SYMMETRY UNIQUE ATOMS (ANGS)
   ATOM   CHARGE       X              Y              Z
 ------------------------------------------------------------
 C           6.0  -6.2368844586   2.6206047022  -0.0000000000
 CL         17.0  -7.3335591609   3.9407059901   0.0000000000
 H           1.0  -6.6514626550   1.5943311177  -0.0000000000
 H           1.0  -4.4968499579   3.7103690219  -0.0000000000
 N           7.0  -4.9431183281   2.7744058196  -0.0000000000
 H           1.0  -4.3106050229   1.9532558051   0.0000000000
 $IRC   PACE=GS2        STRIDE= 0.10000   NPOINT=??
        STOTAL=  4.091419   NEXTPT=  43
        NPRT= 0   NPUN= 0   SADDLE=.FALSE.
        GA(   1)= 6.741583670E-04, 9.450251914E-04,-6.064605595E-15
        GA(   4)=-2.005530027E-03, 2.624743157E-04,-9.150179563E-14
        GA(   7)= 2.555753619E-05, 9.733829647E-05,-8.516572236E-16
        GA(  10)= 2.416954752E-04,-1.551981623E-04, 5.114240878E-15
        GA(  13)= 1.124876387E-03,-9.733165813E-04, 1.446004781E-14
        GA(  16)=-6.075730633E-05,-1.763234266E-04, 1.556147081E-16
 $END   
 A GS2 RESTART ALSO REQUIRES THE UPDATED $HESS GROUP FROM THE PUNCH FILE

 *********************************************
 ***** STARTING CONSTRAINED OPTIMIZATION *****
 *** TO FIND THE NEXT REACTION PATH POINT ****
 *********************************************
 CONSTRAINED OPTIMIZATION POINT   1 FOR PATH POINT  43
 COORDINATES OF SYMMETRY UNIQUE ATOMS (ANGS)
   ATOM   CHARGE       X              Y              Z
 ------------------------------------------------------------
 C           6.0  -6.2410322899   2.6147905264  -0.0000000000
 CL         17.0  -7.3293248113   3.9401517745   0.0000000000
 H           1.0  -6.6533350971   1.5872005829  -0.0000000000
 H           1.0  -4.5145557278   3.7217384826  -0.0000000000
 N           7.0  -4.9490492269   2.7795375753  -0.0000000000
 H           1.0  -4.3061540400   1.9661727211   0.0000000000
 ...... END OF ONE-ELECTRON INTEGRALS ......
 STEP CPU TIME =     0.01 TOTAL CPU TIME =          5.7 (      0.1 MIN)
 TOTAL WALL CLOCK TIME=          6.1 SECONDS, CPU UTILIZATION IS    93.88%
 TOTAL NUMBER OF NONZERO TWO-ELECTRON INTEGRALS =               17164
          2 INTEGRAL RECORDS WERE STORED ON DISK FILE  8.
  ...... END OF TWO-ELECTRON INTEGRALS .....
 STEP CPU TIME =     0.01 TOTAL CPU TIME =          5.7 (      0.1 MIN)
 TOTAL WALL CLOCK TIME=          6.1 SECONDS, CPU UTILIZATION IS    93.74%

          --------------------------
                 RHF SCF CALCULATION
          --------------------------
     DENSITY MATRIX CONV=  1.00E-05

 ITER EX DEM     TOTAL ENERGY        E CHANGE  DENSITY CHANGE     ORB. GRAD
          ---------------START SECOND ORDER SCF---------------
   1  0  0     -547.2334149817  -547.2334149817   0.004988672   0.002741753
   2  1  0     -547.2334643262    -0.0000493445   0.003482962   0.000790087
   3  2  0     -547.2334708730    -0.0000065468   0.000621225   0.000176656
   4  3  0     -547.2334710574    -0.0000001844   0.000363765   0.000062463
   5  4  0     -547.2334710932    -0.0000000359   0.000032312   0.000012496
   6  5  0     -547.2334710944    -0.0000000012   0.000008575   0.000004468
   7  6  0     -547.2334710945    -0.0000000001   0.000001012   0.000000292

          -----------------
          DENSITY CONVERGED
          -----------------
     TIME TO FORM FOCK OPERATORS=       0.0 SECONDS (       0.0 SEC/ITER)
     TIME TO SOLVE SCF EQUATIONS=       0.0 SECONDS (       0.0 SEC/ITER)

 FINAL RHF ENERGY IS     -547.2334710945 AFTER   7 ITERATIONS
 ...... END OF RHF CALCULATION ......
 STEP CPU TIME =     0.03 TOTAL CPU TIME =          5.7 (      0.1 MIN)
 TOTAL WALL CLOCK TIME=          6.1 SECONDS, CPU UTILIZATION IS    93.77%
 ..... END OF 1-ELECTRON GRADIENT ......
 STEP CPU TIME =     0.00 TOTAL CPU TIME =          5.7 (      0.1 MIN)
 TOTAL WALL CLOCK TIME=          6.1 SECONDS, CPU UTILIZATION IS    93.77%
 ...... END OF 2-ELECTRON GRADIENT ......
 STEP CPU TIME =     0.01 TOTAL CPU TIME =          5.7 (      0.1 MIN)
 TOTAL WALL CLOCK TIME=          6.1 SECONDS, CPU UTILIZATION IS    93.63%

 UNITS ARE HARTREE/BOHR    E'X               E'Y               E'Z 
    1 C                0.000093676       0.000237609      -0.000000000
    2 CL              -0.000017898       0.000015680      -0.000000000
    3 H               -0.000076570      -0.000231018       0.000000000
    4 H                0.000288229       0.000606716       0.000000000
    5 N               -0.000512440      -0.000365483      -0.000000000
    6 H                0.000225005      -0.000263505      -0.000000000

 CURRENT OPTIMIZATION POINT :
 ENERGY                                 =  -547.2334711 HARTREE
 MASS WEIGHTED TANGENT GRADIENT NORM    =     0.0008119 HARTREE/BOHR-SQRT(AMU)
 NEXT GEOMETRY STEP HAS PREDICTED ANGLE =         1.770 DEGREES
 AND CARTESIAN RMS DISPLACEMENT         =     0.0014837 BOHR

 CONSTRAINED OPTIMIZATION POINT   2 FOR PATH POINT  43
 COORDINATES OF SYMMETRY UNIQUE ATOMS (ANGS)
   ATOM   CHARGE       X              Y              Z
 ------------------------------------------------------------
 C           6.0  -6.2410404035   2.6148131133  -0.0000000000
 CL         17.0  -7.3293095927   3.9401313277   0.0000000000
 H           1.0  -6.6533092554   1.5875114368  -0.0000000000
 H           1.0  -4.5147709135   3.7211771493  -0.0000000000
 N           7.0  -4.9490413317   2.7795745659  -0.0000000000
 H           1.0  -4.3065058340   1.9663497511   0.0000000000
 ...... END OF ONE-ELECTRON INTEGRALS ......
 STEP CPU TIME =     0.01 TOTAL CPU TIME =          5.7 (      0.1 MIN)
 TOTAL WALL CLOCK TIME=          6.1 SECONDS, CPU UTILIZATION IS    93.79%
 TOTAL NUMBER OF NONZERO TWO-ELECTRON INTEGRALS =               17164
          2 INTEGRAL RECORDS WERE STORED ON DISK FILE  8.
  ...... END OF TWO-ELECTRON INTEGRALS .....
 STEP CPU TIME =     0.01 TOTAL CPU TIME =          5.8 (      0.1 MIN)
 TOTAL WALL CLOCK TIME=          6.1 SECONDS, CPU UTILIZATION IS    93.80%

          --------------------------
                 RHF SCF CALCULATION
          --------------------------
     DENSITY MATRIX CONV=  1.00E-05

 ITER EX DEM     TOTAL ENERGY        E CHANGE  DENSITY CHANGE     ORB. GRAD
          ---------------START SECOND ORDER SCF---------------
   1  0  0     -547.2334716477  -547.2334716477   0.000183349   0.000088393
   2  1  0     -547.2334716738    -0.0000000261   0.000072218   0.000026360
   3  2  0     -547.2334716774    -0.0000000036   0.000016394   0.000005172
   4  3  0     -547.2334716777    -0.0000000002   0.000007309   0.000002016
   5  4  0     -547.2334716777    -0.0000000000   0.000002730   0.000000512

          -----------------
          DENSITY CONVERGED
          -----------------
     TIME TO FORM FOCK OPERATORS=       0.0 SECONDS (       0.0 SEC/ITER)
     TIME TO SOLVE SCF EQUATIONS=       0.0 SECONDS (       0.0 SEC/ITER)

 FINAL RHF ENERGY IS     -547.2334716777 AFTER   5 ITERATIONS
 ...... END OF RHF CALCULATION ......
 STEP CPU TIME =     0.02 TOTAL CPU TIME =          5.8 (      0.1 MIN)
 TOTAL WALL CLOCK TIME=          6.2 SECONDS, CPU UTILIZATION IS    93.82%
 ..... END OF 1-ELECTRON GRADIENT ......
 STEP CPU TIME =     0.00 TOTAL CPU TIME =          5.8 (      0.1 MIN)
 TOTAL WALL CLOCK TIME=          6.2 SECONDS, CPU UTILIZATION IS    93.67%
 ...... END OF 2-ELECTRON GRADIENT ......
 STEP CPU TIME =     0.01 TOTAL CPU TIME =          5.8 (      0.1 MIN)
 TOTAL WALL CLOCK TIME=          6.2 SECONDS, CPU UTILIZATION IS    93.68%

 UNITS ARE HARTREE/BOHR    E'X               E'Y               E'Z 
    1 C                0.000003771       0.000000156      -0.000000000
    2 CL              -0.000005266      -0.000003761      -0.000000000
    3 H               -0.000000157       0.000000332       0.000000000
    4 H                0.000007326       0.000000220       0.000000000
    5 N               -0.000001475       0.000009963       0.000000000
    6 H               -0.000004197      -0.000006910      -0.000000000

 STOPPING BECAUSE GRADIENT IS BELOW -OPTTOL-
 YOUR RUN IS PROBABLY VERY NEAR A PES MINIMUM.
 MAX GRADIENT= 0.000010 RMS GRADIENT= 0.000004


 *******************************************
 ***** END OF CONSTRAINED OPTIMIZATION *****
 *******************************************

 ANGLE BETWEEN GRADIENTS AT CURRENT AND PREVIOUS IRC POINT =   1.770
 ENERGY WAS LOWERED BY      0.0000005832 HARTREE DURING OPTIMIZATION

 ***** NEXT POINT ON IRC FOUND *****
 STEP DISTANCE IS   0.09999 SQRT(AMU)-BOHR)

1         POINT  43 ON THE REACTION PATH
          ******************************
          AT PATH DISTANCE STOTAL =   4.19141     SQRT(AMU)-BOHR
          TOTAL ENERGY            =  -547.2334717 HARTREE
            2 CONSTRAINED OPTIMIZATION STEPS WERE PERFORMED
  
 COORDINATES OF ALL ATOMS ARE (ANGS)
   ATOM   CHARGE       X              Y              Z
 ------------------------------------------------------------
 C           6.0  -6.2410404035   2.6148131133  -0.0000000000
 CL         17.0  -7.3293095927   3.9401313277   0.0000000000
 H           1.0  -6.6533092554   1.5875114368  -0.0000000000
 H           1.0  -4.5147709135   3.7211771493  -0.0000000000
 N           7.0  -4.9490413317   2.7795745659  -0.0000000000
 H           1.0  -4.3065058340   1.9663497511   0.0000000000
  

          INTERNUCLEAR DISTANCES (ANGS.)
          ------------------------------

                1 C          2 CL         3 H          4 H          5 N     

   1 C       0.0000000    1.7148756 *  1.1069392 *  2.0503775 *  1.3024623 *
   2 CL      1.7148756 *  0.0000000    2.4478147 *  2.8230425 *  2.6481256 *
   3 H       1.1069392 *  2.4478147 *  0.0000000    3.0209064    2.0797941 *
   4 H       2.0503775 *  2.8230425 *  3.0209064    0.0000000    1.0369215 *
   5 N       1.3024623 *  2.6481256 *  2.0797941 *  1.0369215 *  0.0000000  
   6 H       2.0403256 *  3.6101463    2.3771842 *  1.7671428 *  1.0364297 *

                6 H     

   1 C       2.0403256 *
   2 CL      3.6101463  
   3 H       2.3771842 *
   4 H       1.7671428 *
   5 N       1.0364297 *
   6 H       0.0000000  

  * ... LESS THAN  3.000


          CURRENT CARTESIAN GRADIENT
          ATOM               DE/DX          DE/DY          DE/DZ
          -----------------------------------------------------------
          C                0.0000037709   0.0000001557  -0.0000000000
          CL              -0.0000052661  -0.0000037611  -0.0000000000
          H               -0.0000001571   0.0000003320   0.0000000000
          H                0.0000073262   0.0000002199   0.0000000000
          N               -0.0000014753   0.0000099632   0.0000000000
          H               -0.0000041975  -0.0000069099  -0.0000000000


                     --------------------
                     INTERNAL COORDINATES
                     --------------------

                 - - ATOMS - -         COORDINATE      COORDINATE
 NO.   TYPE    I  J  K  L  M  N        (BOHR,RAD)       (ANG,DEG)
 ----------------------------------------------------------------
   1 STRETCH   1  3                     2.0918117       1.1069392
   2 STRETCH   1  5                     2.4612968       1.3024623
   3 STRETCH   1  2                     3.2406449       1.7148756
   4 STRETCH   4  5                     1.9594975       1.0369215
   5 STRETCH   5  6                     1.9585681       1.0364297
   6 BEND      1  5  6                  2.1126366     121.0451622
   7 BEND      1  5  4                  2.1297678     122.0267036
   8 BEND      2  1  5                  2.1314543     122.1233333
   9 BEND      2  1  3                  2.0724577     118.7430796
  10 BEND      3  1  5                  2.0792733     119.1335871
  11 BEND      4  5  6                  2.0407809     116.9281342
  12 TORSION   2  1  5  4               0.0000000       0.0000000
  13 TORSION   2  1  5  6               3.1415927     180.0000000
  14 TORSION   3  1  5  4               3.1415927     180.0000000
  15 TORSION   3  1  5  6               0.0000000       0.0000000

 THE NUCLEAR REPULSION AT THE IRC POINT IS       97.2705790487

 * * * IRC RESTART INFORMATION * * *
 COORDINATES FOR $DATA AND ENTIRE $IRC GROUP FOLLOW

 COORDINATES OF SYMMETRY UNIQUE ATOMS (ANGS)
   ATOM   CHARGE       X              Y              Z
 ------------------------------------------------------------
 C           6.0  -6.2410404035   2.6148131133  -0.0000000000
 CL         17.0  -7.3293095927   3.9401313277   0.0000000000
 H           1.0  -6.6533092554   1.5875114368  -0.0000000000
 H           1.0  -4.5147709135   3.7211771493  -0.0000000000
 N           7.0  -4.9490413317   2.7795745659  -0.0000000000
 H           1.0  -4.3065058340   1.9663497511   0.0000000000
 $IRC   PACE=GS2        STRIDE= 0.10000   NPOINT=??
        STOTAL=  4.191407   NEXTPT=  44
        NPRT= 0   NPUN= 0   SADDLE=.FALSE.
        GA(   1)= 3.770903481E-06, 1.556989548E-07,-1.776624381E-14
        GA(   4)=-5.266085128E-06,-3.761114459E-06,-1.122483384E-13
        GA(   7)=-1.571387081E-07, 3.319607522E-07, 7.060722730E-15
        GA(  10)= 7.326237192E-06, 2.198966579E-07, 1.018292780E-14
        GA(  13)=-1.475279355E-06, 9.963248727E-06, 1.280461601E-14
        GA(  16)=-4.197456936E-06,-6.909934902E-06,-3.224216593E-15
 $END   
 A GS2 RESTART ALSO REQUIRES THE UPDATED $HESS GROUP FROM THE PUNCH FILE
 ......DONE WITH THIS PORTION OF THE IRC......
 STEP CPU TIME =     0.02 TOTAL CPU TIME =          5.8 (      0.1 MIN)
 TOTAL WALL CLOCK TIME=          6.2 SECONDS, CPU UTILIZATION IS    93.85%
               580000  WORDS OF DYNAMIC MEMORY USED
 EXECUTION OF GAMESS TERMINATED NORMALLY Tue Dec 21 00:24:59 2021
 DDI: 263640 bytes (0.3 MB / 0 MWords) used by master data server.

 ----------------------------------------
 CPU timing information for all processes
 ========================================
 0: 3.360 + 2.441 = 5.802
 ----------------------------------------
 ddikick.x: exited gracefully.
----- accounting info -----
Files used on the master node chemcompute-node-0.novalocal were:
-rw-r--r--. 1 chemcomp chemcomp     6243 Dec 21 00:24 /scratch/329200/367165.F05
-rw-rw-r--. 1 chemcomp chemcomp   360032 Dec 21 00:24 /scratch/329200/367165.F08
-rw-rw-r--. 1 chemcomp chemcomp 65536000 Dec 21 00:24 /scratch/329200/367165.F10
Tue Dec 21 00:25:02 UTC 2021
0.128u 0.071s 0:09.70 1.9%	0+0k 16+224io 0pf+0w
Finishing Up...
Looking for IR data...
Looking for Raman data...
vibramans not found
Looking for thermodynamics data...
Looking for UV-Vis data...
329200
